/*--------------------------------*- C++ -*----------------------------------*\
| =========                 |                                                 |
| \\      /  F ield         | OpenFOAM: The Open Source CFD Toolbox           |
|  \\    /   O peration     | Version:  5.x                                   |
|   \\  /    A nd           | Web:      www.OpenFOAM.org                      |
|    \\/     M anipulation  |                                                 |
\*---------------------------------------------------------------------------*/
FoamFile
{
    version     2.0;
    format      ascii;
    class       volScalarField;
    location    "3.8";
    object      gradTx;
}
// * * * * * * * * * * * * * * * * * * * * * * * * * * * * * * * * * * * * * //

dimensions      [0 -1 0 1 0 0 0];

internalField   nonuniform List<scalar> 
2048
(
0.0212324
0.0634524
0.104913
0.145043
0.183196
0.218657
0.250684
0.278569
0.301711
0.31968
0.332263
0.339481
0.341573
0.338963
0.332211
0.321964
0.308908
0.293727
0.277072
0.259534
0.241628
0.223786
0.206351
0.189584
0.173669
0.158726
0.144823
0.131979
0.120183
0.109391
0.0995456
0.0905726
0.0823946
0.0749341
0.0681178
0.0618799
0.0561627
0.0509171
0.0461022
0.0416839
0.037634
0.0339288
0.0305472
0.02747
0.0246783
0.0221531
0.0198748
0.0178233
0.0159779
0.0143178
0.012822
0.0114698
0.0102412
0.00911643
0.00807717
0.00710633
0.00618859
0.00531063
0.00446129
0.00363163
0.00281488
0.0020062
0.00120221
0.000400517
0.0629713
0.18821
0.311251
0.430423
0.543805
0.649251
0.744517
0.827451
0.89622
0.949517
0.9867
1.00784
1.01367
1.00549
0.984998
0.954139
0.914976
0.869559
0.819832
0.767557
0.714268
0.661238
0.609481
0.559758
0.512609
0.468381
0.42726
0.389303
0.354462
0.322611
0.293563
0.267101
0.242989
0.220994
0.200898
0.182504
0.165643
0.15017
0.135963
0.122925
0.110972
0.100036
0.0900549
0.0809733
0.0727359
0.0652869
0.0585684
0.0525205
0.0470823
0.0421916
0.0377867
0.0338062
0.03019
0.0268802
0.023822
0.0209645
0.0182624
0.0156761
0.0131725
0.0107254
0.00831484
0.00592705
0.00355253
0.00118381
0.10342
0.309171
0.511495
0.707705
0.894648
1.06872
1.22609
1.36305
1.47644
1.564
1.62466
1.65855
1.66699
1.6522
1.61709
1.56496
1.49928
1.42348
1.34079
1.25414
1.16605
1.07861
0.993449
0.911805
0.834526
0.762151
0.69496
0.633023
0.576242
0.52439
0.477147
0.434137
0.394963
0.359234
0.326587
0.296698
0.26929
0.244126
0.221014
0.199795
0.180337
0.162531
0.146282
0.1315
0.118098
0.105984
0.095064
0.0852408
0.0764134
0.0684804
0.0613398
0.0548912
0.0490356
0.0436778
0.038727
0.0340998
0.029721
0.0255258
0.0214601
0.0174812
0.0135572
0.00966654
0.00579606
0.00193233
0.14286
0.427213
0.70721
0.979278
1.23906
1.4814
1.70072
1.89154
2.04915
2.17024
2.25324
2.29843
2.30781
2.28469
2.23331
2.15845
2.06504
1.95795
1.84172
1.72045
1.59764
1.47615
1.35821
1.24545
1.13898
1.0395
0.947328
0.862528
0.784923
0.714165
0.649781
0.591223
0.537916
0.489305
0.444878
0.404189
0.366856
0.33256
0.301042
0.272089
0.24553
0.221221
0.199039
0.178867
0.160587
0.144077
0.129208
0.115843
0.103845
0.0930731
0.0833861
0.0746454
0.0667143
0.0594604
0.0527576
0.0464896
0.0405521
0.0348553
0.0293251
0.0239036
0.0185479
0.0132297
0.00793608
0.0026474
0.181448
0.542849
0.899381
1.24676
1.57944
1.8906
2.17262
2.41792
2.61994
2.77407
2.87825
2.933
2.94117
2.90741
2.83746
2.73773
2.61474
2.47484
2.32396
2.16736
2.00953
1.85408
1.70376
1.56053
1.42572
1.3001
1.18401
1.07746
0.980158
0.891621
0.811192
0.738127
0.671657
0.611048
0.555641
0.504864
0.458241
0.415377
0.375953
0.339714
0.306453
0.276004
0.248222
0.222968
0.200102
0.17947
0.160909
0.144247
0.129305
0.115906
0.103872
0.0930256
0.0831934
0.0742058
0.065901
0.0581296
0.0507579
0.0436716
0.0367774
0.0300033
0.0232975
0.0166252
0.00997785
0.00333074
0.219223
0.656245
1.08844
1.51105
1.91738
2.29876
2.64515
2.94634
3.19347
3.38041
3.50452
3.56676
3.57112
3.52383
3.43245
3.30515
3.15019
2.9755
2.78843
2.59546
2.40206
2.21254
2.0301
1.85699
1.69463
1.54381
1.40485
1.27765
1.1618
1.05664
0.961298
0.874803
0.796169
0.724469
0.65889
0.598743
0.543463
0.492589
0.445753
0.402664
0.363091
0.326854
0.293796
0.263765
0.236601
0.212122
0.19013
0.170415
0.152762
0.136954
0.122777
0.110018
0.0984655
0.0879132
0.0781627
0.0690303
0.0603528
0.0519912
0.0438339
0.0357965
0.0278198
0.0198639
0.0119283
0.00398467
0.256109
0.767237
1.27431
1.7724
2.25375
2.70759
3.12093
3.48025
3.77378
3.99348
4.13616
4.20344
4.20086
4.13664
4.02042
3.86241
3.67268
3.46084
3.23572
3.00509
2.77539
2.55159
2.33727
2.13482
1.94569
1.77061
1.60982
1.46309
1.32987
1.20926
1.10017
1.00136
0.91158
0.829704
0.754761
0.685953
0.622636
0.564297
0.510527
0.461008
0.415496
0.373805
0.33578
0.301267
0.270088
0.242034
0.216872
0.194352
0.17422
0.156222
0.140108
0.125631
0.112543
0.100599
0.0895629
0.079215
0.0693614
0.059839
0.0505181
0.0413039
0.032132
0.0229585
0.0137952
0.00461184
0.291923
0.875337
1.45639
2.03042
2.58873
3.11815
3.60203
4.02264
4.36442
4.617
4.77666
4.84609
4.8329
4.74781
4.60293
4.41066
4.18303
3.9314
3.66615
3.39639
3.12956
2.87124
2.62528
2.39407
2.17898
1.98061
1.79904
1.63392
1.48449
1.34966
1.22802
1.11802
1.01813
0.926996
0.843484
0.766702
0.695948
0.630668
0.570421
0.51487
0.463767
0.416935
0.374236
0.335521
0.300603
0.269244
0.241171
0.216092
0.193711
0.173739
0.155893
0.139892
0.125454
0.112294
0.100133
0.0887163
0.0778163
0.0672457
0.0568582
0.0465499
0.0362536
0.0259231
0.0155872
0.00521507
0.326376
0.979757
1.63362
2.28413
2.92184
3.5309
4.0901
4.5762
4.96871
5.25436
5.42907
5.49718
5.46913
5.35873
5.18094
4.95059
4.68172
4.38743
4.07977
3.7693
3.4645
3.17148
2.89419
2.63489
2.3947
2.17401
1.97273
1.79034
1.62591
1.47809
1.34514
1.22512
1.11617
1.01667
0.925361
0.841264
0.763644
0.691918
0.625627
0.564417
0.508044
0.456358
0.409254
0.366604
0.328215
0.293815
0.263087
0.235691
0.211287
0.189553
0.170175
0.152842
0.137238
0.123036
0.109915
0.0975747
0.0857558
0.074247
0.0628858
0.0515612
0.0402056
0.0287725
0.0173128
0.00579715
0.359084
1.07942
1.80446
2.53192
3.25199
3.94577
4.5864
5.14341
5.58981
5.90874
6.09609
6.15872
6.11086
5.9702
5.75497
5.48252
5.16889
4.82895
4.47647
4.12363
3.78005
3.45226
3.14409
2.85746
2.59312
2.35113
2.13121
1.93268
1.75445
1.59491
1.45192
1.32308
1.20611
1.09913
1.00075
0.909957
0.826005
0.748302
0.676371
0.609848
0.548497
0.492211
0.440944
0.394611
0.353009
0.315832
0.282702
0.253225
0.227019
0.203726
0.183007
0.164529
0.147941
0.132875
0.118955
0.105836
0.0932228
0.0808813
0.0686346
0.0563661
0.04401
0.0315218
0.0189805
0.00636062
0.389578
1.17298
1.96692
2.77162
3.57743
4.36218
5.09194
5.72673
6.23091
6.58319
6.78007
6.83222
6.75888
6.58253
6.32508
6.00644
5.64452
5.25583
4.85597
4.45906
4.07598
3.71352
3.37512
3.06209
2.77461
2.51237
2.27486
2.0613
1.87048
1.70052
1.54882
1.41238
1.28843
1.17481
1.07005
0.973127
0.883337
0.800095
0.722905
0.651387
0.585315
0.524645
0.46943
0.419647
0.375089
0.335392
0.300112
0.268788
0.240989
0.21633
0.194453
0.175008
0.157617
0.141862
0.127306
0.11355
0.100263
0.0871891
0.0741396
0.0609938
0.047689
0.0341856
0.0205976
0.00690757
0.41732
1.25889
2.11864
3.00048
3.89576
4.77898
5.6075
6.32874
6.89535
7.28072
7.48312
7.51873
7.41341
7.19553
6.89099
6.5221
6.10844
5.66784
5.21791
4.77518
4.35203
3.95525
3.58748
3.24914
2.93964
2.6582
2.40415
2.17663
1.97439
1.79534
1.63634
1.49357
1.36366
1.24421
1.13368
1.03113
0.935957
0.847585
0.765494
0.689275
0.618703
0.553823
0.49484
0.441827
0.394564
0.352608
0.315427
0.282481
0.25329
0.227445
0.204579
0.184336
0.166318
0.150053
0.135024
0.120769
0.106922
0.0932112
0.0794356
0.0654734
0.0512645
0.0367773
0.0221704
0.00743941
0.441726
1.33543
2.2569
3.21519
4.20392
5.19447
6.1337
6.95226
7.5868
8.00435
8.20701
8.21883
8.07415
7.80856
7.45207
7.0291
6.56042
6.06474
5.56182
5.07145
4.60787
4.17746
3.78148
3.41912
3.08881
2.78921
2.51959
2.27912
2.0666
1.87984
1.71502
1.56725
1.43239
1.30782
1.19206
1.08433
0.984182
0.891065
0.804413
0.723767
0.648878
0.579907
0.517297
0.461263
0.41155
0.367599
0.328766
0.294418
0.264021
0.237155
0.213455
0.192571
0.1741
0.157505
0.142167
0.127547
0.113249
0.0989877
0.0845567
0.0698337
0.0547582
0.0393094
0.0237032
0.00795662
0.462191
1.40076
2.3787
3.41191
4.49808
5.60633
6.67104
7.60057
8.3094
8.75712
8.95324
8.9326
8.74021
8.4205
8.00743
7.52687
7.00029
6.44636
5.88717
5.34721
4.84317
4.38024
3.9575
3.57263
3.22278
2.90604
2.62176
2.36925
2.1475
1.95446
1.78544
1.63407
1.49521
1.36617
1.24563
1.13308
1.02832
0.930823
0.839939
0.75513
0.676066
0.603058
0.536918
0.478068
0.426169
0.380491
0.340257
0.304719
0.273287
0.245548
0.221149
0.199767
0.181014
0.164278
0.148798
0.133938
0.119288
0.104557
0.0895355
0.0741033
0.0581916
0.0417922
0.0251977
0.00845854
0.478118
1.45305
2.48088
3.58634
4.77369
6.01145
7.21984
8.27762
9.06793
9.54206
9.72291
9.65959
9.4101
9.02985
8.556
8.01481
7.42803
6.81267
6.19335
5.60164
5.05757
4.56378
4.11606
3.7104
3.34235
3.00938
2.71127
2.44749
2.21746
2.01962
1.84824
1.69474
1.55276
1.41979
1.2948
1.17768
1.06865
0.967142
0.872347
0.783644
0.700505
0.623426
0.5538
0.492344
0.438544
0.391415
0.350035
0.313512
0.281196
0.252713
0.227728
0.20597
0.187106
0.170433
0.15498
0.139998
0.125084
0.109955
0.0944014
0.0783102
0.0615861
0.044234
0.0266525
0.00894305
0.48896
1.49054
2.56024
3.7338
5.02532
6.40581
7.78027
8.98832
9.86808
10.362
10.5167
10.3988
10.0816
9.63472
9.09652
8.49221
7.84385
7.16393
6.47962
5.8337
5.25074
4.72842
4.25775
3.83326
3.44842
3.09997
2.78876
2.51434
2.27677
2.07568
1.90408
1.75004
1.60567
1.46918
1.33998
1.21843
1.10545
1.00029
0.901906
0.8096
0.722448
0.641147
0.568017
0.504191
0.448804
0.400506
0.358241
0.320927
0.287855
0.25874
0.23326
0.21122
0.192417
0.176033
0.160783
0.145778
0.130678
0.115214
0.0991804
0.0824823
0.0649645
0.0466405
0.0280619
0.00940626
0.494248
1.51165
2.61365
3.84931
5.24671
6.78424
8.35219
9.73896
10.7167
11.2196
11.3347
11.1489
10.7519
10.2329
9.62772
8.95828
8.24833
7.5008
6.74511
6.04201
5.42237
4.87471
4.38328
3.94219
3.542
3.17856
2.85493
2.57031
2.32561
2.12292
1.9537
1.80085
1.65457
1.51484
1.38153
1.25556
1.13896
1.03054
0.928863
0.833314
0.742171
0.656331
0.579605
0.513699
0.457086
0.407898
0.36502
0.327105
0.29337
0.263721
0.237808
0.215543
0.196974
0.181145
0.166282
0.151327
0.136105
0.120362
0.103893
0.0866483
0.0683523
0.0490141
0.0294153
0.00984212
0.493631
1.51511
2.6383
3.92781
5.43072
7.14012
8.93493
10.5377
11.6221
12.1163
12.1764
11.9079
11.4169
10.822
10.1484
9.412
8.64259
7.82458
6.9886
6.22474
5.57227
5.00351
4.49339
4.0383
3.62423
3.24587
2.9105
2.61596
2.36402
2.16149
1.99793
1.84814
1.70005
1.55726
1.41982
1.28922
1.16939
1.05813
0.953436
0.855126
0.759989
0.669053
0.58855
0.520957
0.463541
0.413722
0.370524
0.332188
0.297839
0.267746
0.241438
0.218948
0.200792
0.185843
0.171561
0.156687
0.1414
0.125424
0.108552
0.0908386
0.0717798
0.0513533
0.0306949
0.0102419
0.4869
1.50001
2.63179
3.9643
5.56934
7.465
9.52694
11.3952
12.5946
13.0524
13.0407
12.6741
12.0717
11.3996
10.6577
9.85187
9.0284
8.13747
7.20843
6.37935
5.70051
5.11608
4.58875
4.1228
3.69642
3.30247
2.95627
2.65192
2.39183
2.19134
2.03774
1.89307
1.74259
1.59685
1.45521
1.31946
1.19696
1.08334
0.975785
0.875415
0.776273
0.679336
0.594774
0.526062
0.468343
0.418096
0.374911
0.33633
0.301346
0.270913
0.244222
0.221423
0.203865
0.190218
0.17672
0.161888
0.146587
0.130422
0.113157
0.0950872
0.0752861
0.0536511
0.0318744
0.0105936
0.47402
1.46593
2.59236
3.95415
5.65384
7.74819
10.1251
12.3258
13.6472
14.0251
13.926
13.4457
12.7094
11.9634
11.1554
10.2754
9.40852
8.443
7.40214
6.50238
5.80755
5.21431
4.66981
4.19708
3.76011
3.34871
2.99314
2.679
2.40857
2.21214
2.07434
1.93701
1.78249
1.63405
1.48809
1.3462
1.22185
1.10645
0.995974
0.894619
0.791486
0.687128
0.598109
0.529128
0.471703
0.421115
0.378349
0.339698
0.303949
0.273324
0.246243
0.222923
0.206159
0.194378
0.181876
0.16694
0.151692
0.135377
0.117694
0.099434
0.0789234
0.0558929
0.0329165
0.0108815
0.45513
1.41299
2.51906
3.89337
5.67496
7.9763
10.7237
13.3487
14.7965
15.0275
14.8301
14.2223
13.3207
12.512
11.6422
10.6785
9.78694
8.74659
7.56605
6.58905
5.89457
5.30089
4.73649
4.26272
3.81717
3.3845
3.02214
2.6983
2.41341
2.22318
2.10928
1.98163
1.81974
1.66925
1.51892
1.36912
1.2443
1.12782
1.01391
0.913256
0.806222
0.692263
0.59827
0.530317
0.473884
0.422821
0.381016
0.342483
0.305665
0.275096
0.247608
0.223368
0.207602
0.198466
0.187178
0.17182
0.156735
0.140318
0.122119
0.103929
0.0827639
0.0580522
0.0337702
0.011085
0.430551
1.34186
2.41186
3.77896
5.62328
8.13276
11.3131
14.4897
16.0637
16.0453
15.7515
15.0056
13.8924
13.0451
12.1207
11.054
10.1694
9.0563
7.69467
6.63288
5.96385
5.37965
4.78773
4.3216
3.86996
3.40902
3.04455
2.71139
2.40496
2.22319
2.14461
2.02905
1.85379
1.7029
1.54834
1.3876
1.26463
1.14789
1.02923
0.931964
0.821276
0.694417
0.594827
0.529863
0.47523
0.423174
0.383116
0.34491
0.306444
0.276366
0.248468
0.222623
0.208067
0.202674
0.192814
0.176449
0.161742
0.145283
0.12635
0.108636
0.0869085
0.060085
0.0343683
0.0111791
0.40077
1.25376
2.27176
3.60924
5.48975
8.19757
11.8772
15.7835
17.4769
17.0534
16.6898
15.8011
14.4055
13.5646
12.5963
11.3901
10.564
9.38392
7.77977
6.62515
6.0194
5.45595
4.82084
4.37609
3.92163
3.42027
3.06204
2.72053
2.38112
2.21015
2.18307
2.08194
1.88328
1.73555
1.57726
1.40049
1.28328
1.16734
1.04117
0.951556
0.837721
0.693031
0.587158
0.528126
0.476194
0.421996
0.384892
0.347266
0.30613
0.277305
0.249031
0.220484
0.207355
0.207264
0.199028
0.180666
0.166754
0.150338
0.130242
0.113642
0.0914982
0.0619202
0.0346248
0.0111342
0.36642
1.15042
2.10082
3.38418
5.2664
8.1472
12.3904
17.2765
19.0731
18.0105
17.6477
16.6205
14.832
14.0762
13.0786
11.6676
10.9824
9.74625
7.80919
6.55431
6.06764
5.53722
4.83049
4.42933
3.97648
3.4145
3.07683
2.72904
2.33885
2.18106
2.22842
2.14381
1.90559
1.76799
1.60706
1.40594
1.30097
1.18713
1.04837
0.973094
0.857018
0.68722
0.574411
0.525646
0.477379
0.418895
0.386653
0.349927
0.304408
0.278141
0.249605
0.216656
0.205169
0.212595
0.206144
0.184185
0.171837
0.15559
0.133561
0.119071
0.0967288
0.0634464
0.0344346
0.0109169
0.32824
1.034
1.90214
3.10566
4.94722
7.955
12.8131
19.031
20.9018
18.8517
18.634
17.4846
15.1308
14.5909
13.5835
11.8563
11.4407
10.1669
7.76521
6.40534
6.11842
5.63359
4.80743
4.48572
4.04049
3.38527
3.09206
2.74167
2.27387
2.13156
2.28575
2.21923
1.91629
1.80149
1.63981
1.40099
1.31883
1.2087
1.04855
0.998007
0.881156
0.675641
0.555452
0.523225
0.479595
0.413157
0.388812
0.353402
0.300727
0.27918
0.250621
0.210726
0.20108
0.219161
0.214592
0.186535
0.177111
0.161218
0.135939
0.125092
0.10287
0.0644925
0.0336747
0.0104931
0.287044
0.906956
1.6797
2.77766
4.52923
7.59231
13.086
21.129
23.0296
19.479
19.6673
18.4273
15.241
15.1284
14.136
11.9098
11.9619
10.6782
7.62244
6.15917
6.18612
5.75877
4.73662
4.5516
4.12201
3.32232
3.11215
2.76512
2.18026
2.05556
2.36192
2.31421
1.90835
1.83806
1.6786
1.38111
1.33862
1.23416
1.03813
1.02824
0.912815
0.65632
0.528818
0.522014
0.483921
0.4036
0.391948
0.358397
0.2942
0.280853
0.252691
0.202132
0.194491
0.227631
0.224944
0.186981
0.182782
0.167501
0.136821
0.131952
0.110286
0.0648015
0.032209
0.00983121
0.243674
0.771951
1.4382
2.40624
4.01356
7.0306
13.1215
23.6783
25.5463
19.7483
20.7817
19.5008
15.0748
15.7201
14.7734
11.7597
12.5784
11.3238
7.34512
5.79202
6.29105
5.93106
4.59491
4.63622
4.2327
3.21002
3.14347
2.80858
2.05007
1.94477
2.46607
2.43671
1.87109
1.88092
1.7279
1.33956
1.36302
1.26661
1.01171
1.06649
0.955565
0.626442
0.49268
0.523624
0.491793
0.388392
0.396885
0.365884
0.283464
0.283762
0.256653
0.19012
0.184586
0.238897
0.237965
0.184423
0.189185
0.174865
0.135384
0.140002
0.119466
0.0639955
0.0298996
0.00890805
0.19896
0.631693
1.18285
1.9994
3.40646
6.24495
12.7943
26.8186
28.5728
19.4536
22.0345
20.7818
14.5058
16.4147
15.55
11.3063
13.3356
12.1615
6.88385
5.27502
6.46084
6.17476
4.34803
4.75312
4.38862
3.02534
3.19511
2.88439
1.87277
1.78818
2.61019
2.59722
1.78894
1.93507
1.79408
1.26654
1.39605
1.31046
0.961405
1.11647
1.01409
0.582078
0.444806
0.530241
0.505109
0.364804
0.4048
0.377202
0.266511
0.288761
0.263631
0.173702
0.170278
0.254138
0.254672
0.177264
0.196853
0.183936
0.130447
0.14974
0.131049
0.0615311
0.0266232
0.00771514
0.15369
0.488814
0.919026
1.56671
2.72008
5.2193
11.9289
30.7287
32.2709
18.3067
23.5159
22.3781
13.3566
17.284
16.5426
10.4089
14.2966
13.2659
6.17152
4.57401
6.73205
6.52172
3.94697
4.9218
4.61158
2.73541
3.28003
3.00872
1.6347
1.57141
2.80975
2.80952
1.63983
2.00809
1.88594
1.14814
1.44354
1.37187
0.876039
1.18329
1.09443
0.517866
0.382561
0.544746
0.526359
0.328919
0.417367
0.39417
0.240472
0.297044
0.275096
0.151606
0.150144
0.274873
0.276414
0.163249
0.206589
0.195603
0.120347
0.16187
0.145866
0.0566431
0.0222975
0.00626572
0.108572
0.345758
0.652018
1.11876
1.97273
3.95386
10.284
35.6346
36.8555
15.9138
25.3616
24.4376
11.3822
18.4309
17.8563
8.87333
15.548
14.732
5.11872
3.64978
7.15153
7.01336
3.32348
5.16999
4.93067
2.2945
3.4164
3.20217
1.31842
1.27613
3.08432
3.0916
1.39327
2.11107
2.01542
0.965072
1.51378
1.45928
0.740116
1.27397
1.20424
0.426631
0.302927
0.570825
0.558786
0.275277
0.436933
0.41922
0.201359
0.310274
0.292926
0.122227
0.12236
0.303031
0.304961
0.139266
0.219574
0.211101
0.102795
0.177369
0.164966
0.0482773
0.0169163
0.00460038
0.0642228
0.204691
0.386752
0.666475
1.18838
2.47489
7.53503
41.8177
42.6098
11.7468
27.7678
27.1571
8.25124
19.999
19.6324
6.43691
17.2079
16.6778
3.60847
2.45866
7.7777
7.70308
2.38499
5.53629
5.38399
1.64055
3.6294
3.49039
0.902133
0.879366
3.45823
3.46679
1.00812
2.25984
2.19826
0.691154
1.61823
1.58396
0.532675
1.398
1.353
0.298961
0.202566
0.613071
0.606578
0.19646
0.466734
0.455549
0.143754
0.330732
0.319459
0.0835717
0.0846304
0.341007
0.342624
0.101125
0.237481
0.232089
0.0747063
0.197579
0.189661
0.0350111
0.0105948
0.00278907
0.0211535
0.0674492
0.127561
0.220279
0.3951
0.847275
3.25429
49.6238
49.902
5.11149
31.009
30.7919
3.5243
22.1833
22.056
2.75216
19.434
19.2475
1.49042
0.95393
8.68142
8.65908
1.00874
6.07334
6.02051
0.691137
3.9534
3.90447
0.359017
0.352874
3.9611
3.96507
0.43006
2.47635
2.45482
0.291607
1.77247
1.76068
0.225955
1.56808
1.55231
0.122737
0.0779371
0.677045
0.6751
0.0826255
0.511144
0.507284
0.0604725
0.361503
0.35753
0.0332116
0.0341178
0.391727
0.392385
0.0432914
0.262619
0.260749
0.0320019
0.224309
0.221559
0.0149622
0.00362461
0.000926773
)
;

boundaryField
{
    left
    {
        type            calculated;
        value           uniform 0;
    }
    right
    {
        type            calculated;
        value           uniform 0;
    }
    interface
    {
        type            calculated;
        value           nonuniform List<scalar> 
64
(
0.0211535
0.0674492
0.127561
0.220279
0.3951
0.847275
3.25429
49.6238
49.902
5.11149
31.009
30.7919
3.5243
22.1833
22.056
2.75216
19.434
19.2475
1.49042
0.95393
8.68142
8.65908
1.00874
6.07334
6.02051
0.691137
3.9534
3.90447
0.359017
0.352874
3.9611
3.96507
0.43006
2.47635
2.45482
0.291607
1.77247
1.76068
0.225955
1.56808
1.55231
0.122737
0.0779371
0.677045
0.6751
0.0826255
0.511144
0.507284
0.0604725
0.361503
0.35753
0.0332116
0.0341178
0.391727
0.392385
0.0432914
0.262619
0.260749
0.0320019
0.224309
0.221559
0.0149622
0.00362461
0.000926773
)
;
    }
    bottom
    {
        type            calculated;
        value           nonuniform List<scalar> 
64
(
0.0212324
0.0634524
0.104913
0.145043
0.183196
0.218657
0.250684
0.278569
0.301711
0.31968
0.332263
0.339481
0.341573
0.338963
0.332211
0.321964
0.308908
0.293727
0.277072
0.259534
0.241628
0.223786
0.206351
0.189584
0.173669
0.158726
0.144823
0.131979
0.120183
0.109391
0.0995456
0.0905726
0.0823946
0.0749341
0.0681178
0.0618799
0.0561627
0.0509171
0.0461022
0.0416839
0.037634
0.0339288
0.0305472
0.02747
0.0246783
0.0221531
0.0198748
0.0178233
0.0159779
0.0143178
0.012822
0.0114698
0.0102412
0.00911643
0.00807717
0.00710633
0.00618859
0.00531063
0.00446129
0.00363163
0.00281488
0.0020062
0.00120221
0.000400517
)
;
    }
    defaultFaces
    {
        type            empty;
    }
}


// ************************************************************************* //
