/*--------------------------------*- C++ -*----------------------------------*\
| =========                 |                                                 |
| \\      /  F ield         | OpenFOAM: The Open Source CFD Toolbox           |
|  \\    /   O peration     | Version:  5.x                                   |
|   \\  /    A nd           | Web:      www.OpenFOAM.org                      |
|    \\/     M anipulation  |                                                 |
\*---------------------------------------------------------------------------*/
FoamFile
{
    version     2.0;
    format      ascii;
    class       volScalarField;
    location    "5.7";
    object      gradTx;
}
// * * * * * * * * * * * * * * * * * * * * * * * * * * * * * * * * * * * * * //

dimensions      [0 -1 0 1 0 0 0];

internalField   nonuniform List<scalar> 
2048
(
0.0219652
0.0656487
0.10857
0.150153
0.189742
0.226612
0.260006
0.2892
0.313574
0.332683
0.346298
0.354426
0.357299
0.355335
0.349091
0.339215
0.326398
0.31133
0.294672
0.277024
0.258915
0.240786
0.222988
0.205793
0.189392
0.173914
0.159431
0.145971
0.133524
0.122054
0.111505
0.101808
0.0928905
0.0846791
0.0771068
0.0701142
0.0636507
0.0576748
0.0521527
0.0470572
0.0423661
0.0380608
0.0341245
0.0305406
0.0272921
0.0243605
0.0217254
0.0193648
0.0172554
0.0153725
0.013691
0.0121855
0.0108312
0.00960364
0.00848015
0.00743974
0.00646378
0.00553622
0.00464376
0.00377574
0.00292401
0.00208256
0.00124726
0.000415363
0.0651393
0.194706
0.322069
0.445542
0.563178
0.672801
0.772122
0.858939
0.931366
0.988044
1.02829
1.05213
1.06027
1.054
1.03501
1.00524
0.96678
0.921691
0.871946
0.819341
0.765441
0.711552
0.658716
0.607722
0.559132
0.513315
0.470477
0.430691
0.393924
0.360063
0.328934
0.300328
0.274025
0.249806
0.227469
0.206839
0.187766
0.170127
0.153825
0.138779
0.124927
0.112213
0.10059
0.0900088
0.0804207
0.0717708
0.0639989
0.0570399
0.050824
0.0452784
0.0403283
0.0358986
0.0319147
0.0283047
0.0250007
0.0219404
0.0190685
0.0163374
0.0137078
0.0111485
0.00863542
0.00615132
0.00368422
0.00122687
0.106963
0.319786
0.529175
0.732428
0.926343
1.10727
1.2713
1.41465
1.53405
1.62718
1.69286
1.73119
1.74341
1.73175
1.69908
1.64873
1.58417
1.50888
1.42614
1.33892
1.24981
1.16094
1.074
0.990256
0.910607
0.835622
0.765613
0.700678
0.640742
0.585598
0.534946
0.488428
0.445664
0.406289
0.369967
0.336408
0.305369
0.276652
0.2501
0.225589
0.203016
0.182298
0.16336
0.146126
0.130516
0.116443
0.103809
0.0925049
0.0824172
0.0734256
0.0654069
0.0582369
0.051793
0.0459561
0.040614
0.035664
0.031015
0.026589
0.0223219
0.0181631
0.0140746
0.0100289
0.00600729
0.00200034
0.147717
0.44177
0.731469
1.01322
1.28261
1.53442
1.76296
1.96261
2.12856
2.25734
2.34729
2.3986
2.4132
2.39438
2.34635
2.27389
2.18199
2.07555
1.9592
1.83709
1.71283
1.58933
1.46891
1.35323
1.24349
1.14039
1.04434
0.955402
0.873453
0.798167
0.729093
0.665706
0.607456
0.55382
0.504325
0.458569
0.416224
0.377022
0.340756
0.307261
0.276408
0.248088
0.222206
0.198665
0.177359
0.158168
0.140957
0.125578
0.11187
0.0996685
0.0888011
0.0790956
0.0703814
0.0624926
0.0552727
0.0485787
0.0422841
0.0362816
0.0304835
0.0248215
0.0192452
0.0137193
0.00821972
0.00273698
0.187561
0.561175
0.929941
1.28956
1.63443
1.95762
2.25138
2.50794
2.72058
2.88451
2.99753
3.06005
3.07485
3.0465
2.98076
2.88402
2.76286
2.62371
2.47258
2.31485
2.15511
1.99706
1.84354
1.6966
1.5576
1.42739
1.30637
1.19457
1.09178
0.997514
0.911157
0.831985
0.759258
0.692282
0.630444
0.573235
0.520244
0.471149
0.425697
0.383693
0.344989
0.30946
0.276999
0.247493
0.220815
0.196815
0.175322
0.156146
0.139083
0.123919
0.110436
0.0984144
0.0876339
0.0778819
0.068957
0.0606752
0.0528749
0.0454201
0.038201
0.0311333
0.0241565
0.0172302
0.0103265
0.00343856
0.22653
0.678162
1.12502
1.56235
1.98339
2.37933
2.73995
3.05483
3.31487
3.51371
3.64855
3.72018
3.73252
3.69173
3.60536
3.48159
3.32874
3.15483
2.96734
2.77289
2.57708
2.38434
2.19799
2.02035
1.85291
1.69654
1.55161
1.41809
1.29562
1.18357
1.08111
0.987269
0.9011
0.82172
0.748373
0.680449
0.617466
0.559054
0.50493
0.454877
0.408734
0.366375
0.327687
0.292551
0.260822
0.232322
0.206844
0.184155
0.164006
0.146136
0.13028
0.116169
0.103536
0.092119
0.08167
0.0719632
0.0628017
0.0540214
0.0454919
0.0371151
0.0288225
0.0205722
0.0123342
0.00410728
0.264547
0.792557
1.31662
1.83184
2.33036
2.80128
3.23136
3.60681
3.91554
4.14925
4.30452
4.38281
4.38954
4.33287
4.22242
4.06842
3.88101
3.66992
3.44414
3.21162
2.97897
2.75131
2.53235
2.32455
2.12945
1.94786
1.78009
1.62598
1.48505
1.35644
1.23907
1.13171
1.03315
0.942311
0.858282
0.780364
0.708022
0.640851
0.578546
0.520881
0.467693
0.418861
0.374282
0.333837
0.297371
0.264678
0.235511
0.209595
0.186632
0.166315
0.148332
0.132365
0.118099
0.10522
0.0934333
0.0824681
0.0720917
0.0621126
0.0523816
0.0427888
0.033261
0.0237581
0.0142506
0.00474567
0.301422
0.903859
1.50412
2.0976
2.67552
3.22453
3.7277
4.16691
4.52623
4.79493
4.96905
5.05107
5.0485
4.97197
4.83358
4.64574
4.42058
4.16959
3.90336
3.63124
3.36088
3.09804
2.84669
2.60932
2.38736
2.18153
1.99197
1.81843
1.66023
1.51631
1.38528
1.26558
1.15571
1.05434
0.960432
0.873216
0.792119
0.71672
0.646702
0.581836
0.521967
0.466995
0.416839
0.371395
0.330497
0.293912
0.261353
0.232494
0.206988
0.184483
0.164618
0.14703
0.131352
0.117219
0.104284
0.0922278
0.0807821
0.0697284
0.0589009
0.0481808
0.0374927
0.0268027
0.0160841
0.0053564
0.336859
1.01126
1.68642
2.35863
3.01836
3.64955
4.23063
4.73786
5.15029
5.45422
5.64524
5.72751
5.71135
5.61049
5.43987
5.21433
4.94799
4.65415
4.34511
4.03172
3.72276
3.42453
3.1411
2.87481
2.62688
2.39777
2.18751
1.99568
1.82144
1.66349
1.52009
1.38926
1.26914
1.15817
1.05516
0.959306
0.870023
0.786893
0.709601
0.637918
0.571705
0.510895
0.455453
0.405299
0.360266
0.320088
0.284428
0.252907
0.225127
0.200687
0.179183
0.160207
0.143341
0.128163
0.114269
0.10129
0.0889177
0.0769097
0.0650852
0.05332
0.0415399
0.0297213
0.0178436
0.00594218
0.370465
1.11365
1.86196
2.61329
3.35776
4.07625
4.74142
5.32219
5.79095
6.13033
6.33585
6.4142
6.37947
6.24929
6.04188
5.77455
5.46346
5.12367
4.7693
4.41291
4.06449
3.73077
3.4157
3.12128
2.84831
2.59695
2.36705
2.15807
1.96903
1.79837
1.64392
1.50321
1.37393
1.25423
1.14286
1.03898
0.942035
0.851641
0.767483
0.689337
0.617083
0.550706
0.49024
0.435651
0.38677
0.343292
0.30482
0.270913
0.241121
0.214994
0.192089
0.171953
0.154121
0.138109
0.123446
0.109709
0.0965492
0.0837009
0.0709724
0.0582373
0.0454257
0.0325297
0.0195375
0.00650548
0.401763
1.20966
2.0287
2.85935
3.69192
4.50401
5.26109
5.92239
6.45145
6.82638
7.0433
7.11268
7.05367
6.88874
6.63971
6.32647
5.96701
5.57807
5.17568
4.7745
4.38583
4.01672
3.67067
3.34905
3.05207
2.7795
2.531
2.30598
2.10337
1.92135
1.75726
1.60796
1.47058
1.34303
1.22396
1.1126
1.00848
0.911254
0.820613
0.736331
0.658305
0.586592
0.521332
0.462565
0.410118
0.363629
0.322631
0.28661
0.255058
0.227483
0.203404
0.182333
0.163754
0.147119
0.131878
0.117545
0.103731
0.0901493
0.076602
0.0629642
0.0491732
0.0352427
0.0211736
0.00704836
0.430204
1.29772
2.18423
3.094
4.01841
4.93168
5.79043
6.54107
7.13519
7.54544
7.7697
7.82403
7.73422
7.52866
7.23313
6.86989
6.45852
6.01714
5.56389
5.11605
4.68652
4.28236
3.90624
3.55854
3.23866
2.94592
2.67986
2.43986
2.22487
2.0329
1.86065
1.7041
1.5597
1.42508
1.29891
1.18056
1.06969
0.966035
0.869271
0.779156
0.69559
0.618727
0.54887
0.486165
0.430428
0.38122
0.337978
0.300108
0.267039
0.238242
0.213206
0.191414
0.172308
0.155262
0.139633
0.124861
0.110518
0.0963025
0.0820131
0.067532
0.0528052
0.0378744
0.0227583
0.00757226
0.455194
1.37605
2.32576
3.31386
4.33406
5.35749
6.33006
7.1811
7.84589
8.29058
8.5169
8.54885
8.42081
8.16842
7.82154
7.40443
6.93783
6.44068
5.93347
5.43699
4.96622
4.52773
4.12272
3.75027
3.40871
3.09683
2.81415
2.56016
2.33395
2.13347
1.95468
1.79229
1.64189
1.50093
1.36818
1.24323
1.12601
1.01629
0.913748
0.818084
0.729174
0.647292
0.572992
0.506578
0.447832
0.396195
0.350993
0.311531
0.277175
0.247366
0.221574
0.199266
0.179849
0.16261
0.146783
0.131723
0.116968
0.102208
0.0872442
0.0719713
0.0563434
0.040437
0.0242961
0.00807773
0.476115
1.44281
2.45025
3.51502
4.635
5.77908
6.88046
7.8458
8.58776
9.06488
9.28639
9.28722
9.11255
8.80692
8.40408
7.9296
7.40481
6.84855
6.28385
5.73664
5.22457
4.75291
4.32053
3.92488
3.56293
3.23288
2.93445
2.66735
2.43099
2.22352
2.03995
1.87323
1.71783
1.57115
1.43221
1.30097
1.17774
1.06233
0.954337
0.853403
0.759304
0.672465
0.59383
0.52393
0.462464
0.408696
0.361814
0.321009
0.28558
0.254954
0.22859
0.205955
0.186442
0.169234
0.153403
0.138197
0.123137
0.107911
0.0923313
0.0763117
0.0598086
0.0429404
0.0257889
0.00856414
0.492364
1.49611
2.55448
3.69309
4.91657
6.19326
7.44198
8.53921
9.36567
9.87143
10.0793
10.0387
9.80791
9.44265
8.97968
8.44482
7.85952
7.24076
6.6144
6.01411
5.46117
4.95809
4.50019
4.08315
3.70217
3.35482
3.04141
2.7619
2.51632
2.30346
2.11715
1.94771
1.7882
1.6363
1.49145
1.35413
1.22518
1.10444
0.991329
0.885411
0.78624
0.694415
0.611499
0.538342
0.474466
0.418869
0.37059
0.328681
0.292374
0.261106
0.234332
0.211543
0.19215
0.175212
0.15957
0.144348
0.129078
0.113454
0.0973073
0.0805812
0.0632211
0.0453917
0.0272351
0.00902934
0.503384
1.53418
2.63518
3.84331
5.17324
6.59594
8.01477
9.26633
10.1854
10.7131
10.8963
10.8023
10.5047
10.0737
9.54711
8.94944
8.30225
7.61763
6.92433
6.26825
5.67564
5.14361
4.66235
4.22597
3.82738
3.4634
3.13567
2.84431
2.59018
2.37363
2.18699
2.01659
1.8537
1.69694
1.54633
1.40299
1.26862
1.1429
1.025
0.914426
0.810262
0.713301
0.626088
0.549928
0.483985
0.426865
0.377475
0.334692
0.297677
0.265926
0.23888
0.216082
0.197026
0.18062
0.165366
0.150241
0.134841
0.118877
0.102201
0.0848069
0.0666011
0.0477952
0.0286287
0.00946927
0.5087
1.55541
2.6892
3.96062
5.39863
6.98186
8.59868
10.0335
11.0539
11.5926
11.7375
11.5764
11.1998
10.6978
10.1051
9.4427
8.73373
7.97991
7.21266
6.49756
5.86764
5.31005
4.80771
4.35438
3.93963
3.5594
3.21795
2.91506
2.6527
2.43427
2.25027
2.08084
1.91501
1.75359
1.59725
1.44778
1.30829
1.17799
1.05563
0.940786
0.831678
0.729253
0.637649
0.558799
0.49118
0.43284
0.382628
0.339192
0.30161
0.269515
0.24231
0.219611
0.201114
0.18554
0.170879
0.155935
0.140474
0.124215
0.107034
0.0890153
0.0699707
0.0501509
0.0299578
0.00987747
0.507956
1.55849
2.71365
4.03985
5.58545
7.34424
9.19305
10.8492
11.9797
12.5114
12.6025
12.3594
11.8894
11.3126
10.6525
9.92361
9.15521
8.329
7.47807
6.7
6.03695
5.45829
4.93703
4.46955
4.04015
3.64355
3.28901
2.97471
2.7038
2.48546
2.30791
2.14158
1.97277
1.80678
1.64458
1.48864
1.34441
1.20998
1.08343
0.964861
0.850837
0.742369
0.646183
0.565061
0.496225
0.436945
0.386216
0.342337
0.304283
0.27198
0.244696
0.222154
0.204444
0.190064
0.176206
0.16148
0.146017
0.1295
0.11182
0.093233
0.0733558
0.0524544
0.0312033
0.0102446
0.500944
1.54254
2.7061
4.07593
5.72557
7.6745
9.79627
11.7241
12.9733
13.4697
13.49
13.1492
12.568
11.9155
11.1884
10.3906
9.56871
8.6673
7.71871
6.8728
6.1836
5.58967
5.05098
4.57281
4.13035
3.71642
3.3497
3.02391
2.74318
2.52703
2.361
2.20012
2.0275
1.85696
1.68871
1.5256
1.37718
1.23915
1.10857
0.987063
0.868155
0.752691
0.65162
0.568828
0.499321
0.439323
0.388407
0.34429
0.305799
0.273427
0.24612
0.223709
0.207025
0.194293
0.181456
0.166915
0.151507
0.134763
0.116562
0.0974885
0.0767893
0.0546955
0.0323371
0.0105579
0.487629
1.50713
2.6648
4.06415
5.81009
7.96173
10.4052
12.6731
14.048
14.4648
14.3985
13.9441
13.2289
12.5045
11.7125
10.8413
9.97728
8.99861
7.93185
7.01213
6.30808
5.70618
5.14995
4.66565
4.21189
3.77829
3.40097
3.06351
2.77015
2.5585
2.41092
2.25804
2.0795
1.90456
1.73007
1.55852
1.4068
1.26581
1.13112
1.00787
0.884146
0.760183
0.653796
0.570233
0.500709
0.440095
0.389378
0.345226
0.306235
0.273973
0.246671
0.224248
0.208838
0.198352
0.186757
0.172254
0.156978
0.140034
0.121241
0.101814
0.0803164
0.0568556
0.0333201
0.010801
0.468155
1.45239
2.58877
4.00047
5.82959
8.19227
11.014
13.7155
15.2205
15.4895
15.326
14.7438
13.8622
13.0779
12.2256
11.2711
10.3853
9.32875
8.11344
7.11276
6.41168
5.81069
5.23371
4.74981
4.28681
3.82896
3.44398
3.09472
2.7836
2.57892
2.45947
2.31731
2.12868
1.95003
1.76917
1.58701
1.4335
1.29036
1.15095
1.02783
0.899477
0.76469
0.652427
0.569453
0.500689
0.439336
0.389312
0.34534
0.305633
0.273742
0.24646
0.2237
0.209826
0.2024
0.192265
0.177475
0.162462
0.145352
0.125813
0.10625
0.0840009
0.058905
0.0341004
0.0109534
0.442853
1.37901
2.47801
3.88183
5.77447
8.34924
11.6128
14.8779
16.5127
16.5291
16.2707
15.5498
14.4543
13.6356
12.7305
11.6726
10.7992
9.6664
8.25743
7.16757
6.49692
5.90731
5.30095
4.82742
4.35776
3.86734
3.48017
3.11929
2.78174
2.58666
2.50904
2.38042
2.17434
1.99382
1.80675
1.6103
1.45761
1.31332
1.16767
1.04765
0.915027
0.765887
0.647067
0.566743
0.499645
0.437044
0.388411
0.344858
0.303976
0.272883
0.245632
0.221946
0.209879
0.206644
0.198174
0.182496
0.167997
0.15077
0.130192
0.110847
0.0879339
0.0607971
0.0346109
0.0109912
0.41222
1.28826
2.33358
3.70657
5.63552
8.41225
12.1853
16.1955
17.9529
17.558
17.2327
16.368
14.9856
14.1798
13.2326
12.0333
11.2277
10.0242
8.35477
7.16697
6.56819
6.00183
5.34846
4.90114
4.42822
3.891
3.51146
3.13983
2.76197
2.57921
2.56289
2.45056
2.21477
2.03652
1.84387
1.62704
1.4796
1.33545
1.18042
1.06819
0.931986
0.763198
0.637075
0.562478
0.498078
0.433084
0.386907
0.34406
0.301152
0.271575
0.244389
0.218798
0.208813
0.211363
0.204736
0.187147
0.173635
0.156371
0.134228
0.115678
0.0922457
0.0624596
0.0347684
0.0108875
0.376901
1.18192
2.15759
3.47466
5.40464
8.35731
12.7053
17.716
19.5791
18.5338
18.215
17.2103
15.427
14.7167
13.7419
12.3326
11.6835
10.4203
8.39217
7.09831
6.6326
6.10228
5.37006
4.97461
4.50304
3.89539
3.54048
3.1602
2.7205
2.55285
2.6255
2.53192
2.24679
2.07903
1.88216
1.63502
1.50025
1.35788
1.18766
1.09061
0.95197
0.755695
0.621562
0.557221
0.496648
0.427122
0.385082
0.343303
0.29691
0.270045
0.243016
0.213982
0.206343
0.216935
0.212278
0.191122
0.179462
0.162288
0.137677
0.120845
0.0971207
0.0637827
0.0344732
0.0106138
0.337652
1.06219
1.95322
3.18808
5.07575
8.15723
13.1325
19.5028
21.4416
19.3902
19.2268
18.098
15.7356
15.258
14.2748
12.5385
12.1843
10.8798
8.35031
6.94508
6.70102
6.21968
5.35511
5.05292
4.58898
3.87287
3.57091
3.18596
2.65208
2.50224
2.70295
2.62997
2.26499
2.12276
1.92409
1.63078
1.5208
1.38226
1.18686
1.11644
0.977175
0.741951
0.599349
0.551794
0.496227
0.418515
0.383308
0.343066
0.290789
0.268597
0.241915
0.207112
0.202053
0.223874
0.221235
0.193918
0.185618
0.168728
0.140159
0.126497
0.102816
0.0646006
0.0336106
0.010143
0.295302
0.931602
1.72456
2.8509
4.64582
7.78279
13.4062
21.6399
23.6085
20.0266
20.2877
19.0662
15.8485
15.8245
14.8573
12.6018
12.755
11.4378
8.20157
6.68629
6.7894
6.36901
5.28645
5.14345
4.69554
3.8113
3.60805
3.22499
2.54954
2.41994
2.80347
2.75197
2.26086
2.17005
1.97334
1.609
1.54322
1.41108
1.174
1.1478
1.01056
0.719852
0.568918
0.54738
0.497965
0.406174
0.382098
0.344003
0.282026
0.267645
0.241648
0.197666
0.195351
0.232874
0.232185
0.194751
0.192337
0.176012
0.141097
0.132852
0.109684
0.0646663
0.0320557
0.00945182
0.250712
0.792878
1.47644
2.46934
4.11605
7.2049
13.4371
24.2374
26.1713
20.2954
21.4333
20.1685
15.6741
16.4496
15.5282
12.4494
13.4308
12.141
7.9072
6.29574
6.92019
6.57036
5.13772
5.25699
4.83602
3.69221
3.65946
3.28816
2.40322
2.29588
2.93806
2.90751
2.22152
2.22463
2.03526
1.56178
1.57052
1.44791
1.14307
1.18761
1.05604
0.686363
0.528377
0.545622
0.503373
0.388385
0.382179
0.34701
0.269438
0.26776
0.242983
0.184948
0.18542
0.244857
0.245905
0.192451
0.199993
0.184616
0.139642
0.140232
0.118199
0.0636188
0.0296822
0.00852511
0.204731
0.648789
1.21418
2.05159
3.49286
6.39814
13.0973
27.4382
29.2535
19.9854
22.7231
21.4837
15.0813
17.1846
16.3442
11.9753
14.2607
13.0515
7.41368
5.7415
7.12404
6.85045
4.87002
5.40924
5.0288
3.4885
3.736
3.3901
2.20043
2.11665
3.12116
3.10924
2.12819
2.2924
2.11743
1.47764
1.60726
1.49787
1.08524
1.23992
1.11879
0.637223
0.475443
0.548751
0.514425
0.36258
0.384597
0.353312
0.251266
0.269735
0.246948
0.168054
0.171155
0.261036
0.263431
0.185318
0.209168
0.195233
0.134574
0.149103
0.128988
0.0609392
0.0263773
0.0073602
0.158165
0.50203
0.943297
1.60746
2.7887
5.34618
12.2074
31.4251
33.0204
18.8013
24.2505
23.1231
13.8856
18.1051
17.3854
11.03
15.3127
14.2495
6.64857
4.98565
7.44141
7.24448
4.42774
5.62283
5.2989
3.16152
3.85308
3.54996
1.92476
1.8648
3.37141
3.3738
1.95427
2.38228
2.23038
1.3403
1.66006
1.56806
0.987998
1.31033
1.20545
0.56659
0.407443
0.559699
0.533682
0.32505
0.390849
0.36457
0.224978
0.274671
0.254888
0.145837
0.151098
0.282973
0.286142
0.170957
0.220737
0.208837
0.124174
0.160133
0.14286
0.0558963
0.0220642
0.00597102
0.111744
0.355104
0.669202
1.14779
2.02229
4.04926
10.521
36.429
37.6916
16.3392
26.1557
25.2392
11.8323
19.3192
18.7621
9.40681
16.6801
15.8372
5.51546
3.98442
7.92424
7.79841
3.73358
5.92979
5.67979
2.65758
4.03228
3.79221
1.55533
1.51806
3.71241
3.72293
1.66304
2.50745
2.38829
1.12717
1.7384
1.66817
0.834002
1.40655
1.32441
0.466614
0.321364
0.582221
0.564441
0.270608
0.403051
0.382995
0.187043
0.284087
0.268515
0.116862
0.123358
0.312651
0.31586
0.146071
0.23597
0.22676
0.106078
0.174268
0.160848
0.0474807
0.016734
0.00439127
0.0661046
0.210227
0.396933
0.683736
1.21815
2.53427
7.70677
42.7378
43.5567
12.0579
28.6411
28.0348
8.57719
20.9776
20.6225
6.8266
18.4895
17.9414
3.88845
2.68875
8.63731
8.57164
2.6827
6.37456
6.21542
1.90386
4.30349
4.14732
1.06606
1.04852
4.17351
4.18479
1.20501
2.68671
2.60991
0.807608
1.85544
1.81114
0.599773
1.53904
1.48612
0.326959
0.213944
0.620983
0.610921
0.192193
0.424146
0.411487
0.132654
0.30005
0.289957
0.0793767
0.0855294
0.352534
0.354972
0.106217
0.256664
0.250788
0.0771005
0.192822
0.184236
0.0343266
0.0104887
0.00267548
0.021776
0.0692756
0.130917
0.22598
0.404985
0.867528
3.32761
50.7047
50.9923
5.24565
31.9896
31.774
3.66336
23.2846
23.1613
2.91997
20.9101
20.7171
1.60596
1.04563
9.65921
9.64026
1.13615
7.01759
6.96238
0.803695
4.70733
4.65226
0.424995
0.421856
4.79047
4.79556
0.514778
2.94625
2.91938
0.340893
2.02911
2.01384
0.254205
1.72182
1.70331
0.134269
0.0818213
0.68163
0.67847
0.0804221
0.458147
0.453779
0.0554161
0.325348
0.321795
0.0312774
0.0346081
0.405628
0.406572
0.0455381
0.285291
0.283249
0.033031
0.217585
0.214596
0.0146234
0.00359646
0.000896657
)
;

boundaryField
{
    left
    {
        type            calculated;
        value           uniform 0;
    }
    right
    {
        type            calculated;
        value           uniform 0;
    }
    interface
    {
        type            calculated;
        value           nonuniform List<scalar> 
64
(
0.021776
0.0692756
0.130917
0.22598
0.404985
0.867528
3.32761
50.7047
50.9923
5.24565
31.9896
31.774
3.66336
23.2846
23.1613
2.91997
20.9101
20.7171
1.60596
1.04563
9.65921
9.64026
1.13615
7.01759
6.96238
0.803695
4.70733
4.65226
0.424995
0.421856
4.79047
4.79556
0.514778
2.94625
2.91938
0.340893
2.02911
2.01384
0.254205
1.72182
1.70331
0.134269
0.0818213
0.68163
0.67847
0.0804221
0.458147
0.453779
0.0554161
0.325348
0.321795
0.0312774
0.0346081
0.405628
0.406572
0.0455381
0.285291
0.283249
0.033031
0.217585
0.214596
0.0146234
0.00359646
0.000896657
)
;
    }
    bottom
    {
        type            calculated;
        value           nonuniform List<scalar> 
64
(
0.0219652
0.0656487
0.10857
0.150153
0.189742
0.226612
0.260006
0.2892
0.313574
0.332683
0.346298
0.354426
0.357299
0.355335
0.349091
0.339215
0.326398
0.31133
0.294672
0.277024
0.258915
0.240786
0.222988
0.205793
0.189392
0.173914
0.159431
0.145971
0.133524
0.122054
0.111505
0.101808
0.0928905
0.0846791
0.0771068
0.0701142
0.0636507
0.0576748
0.0521527
0.0470572
0.0423661
0.0380608
0.0341245
0.0305406
0.0272921
0.0243605
0.0217254
0.0193648
0.0172554
0.0153725
0.013691
0.0121855
0.0108312
0.00960364
0.00848015
0.00743974
0.00646378
0.00553622
0.00464376
0.00377574
0.00292401
0.00208256
0.00124726
0.000415363
)
;
    }
    defaultFaces
    {
        type            empty;
    }
}


// ************************************************************************* //
