/*--------------------------------*- C++ -*----------------------------------*\
| =========                 |                                                 |
| \\      /  F ield         | OpenFOAM: The Open Source CFD Toolbox           |
|  \\    /   O peration     | Version:  5.x                                   |
|   \\  /    A nd           | Web:      www.OpenFOAM.org                      |
|    \\/     M anipulation  |                                                 |
\*---------------------------------------------------------------------------*/
FoamFile
{
    version     2.0;
    format      ascii;
    class       volScalarField;
    location    "8.8";
    object      gradTy;
}
// * * * * * * * * * * * * * * * * * * * * * * * * * * * * * * * * * * * * * //

dimensions      [0 -1 0 1 0 0 0];

internalField   nonuniform List<scalar> 
2048
(
-20.1602
-20.0634
-19.8709
-19.585
-19.209
-18.7482
-18.2093
-17.6008
-16.9325
-16.2158
-15.4626
-14.6852
-13.8955
-13.1047
-12.323
-11.5589
-10.8198
-10.1113
-9.43754
-8.80126
-8.20397
-7.6461
-7.12722
-6.64621
-6.20149
-5.79112
-5.41298
-5.06485
-4.74454
-4.44989
-4.17892
-3.92978
-3.7008
-3.49053
-3.29764
-3.12097
-2.95949
-2.81225
-2.67837
-2.55704
-2.44746
-2.34887
-2.26052
-2.18166
-2.11157
-2.04951
-1.99482
-1.94681
-1.90485
-1.86834
-1.83672
-1.80947
-1.78611
-1.76621
-1.74935
-1.73519
-1.7234
-1.7137
-1.70585
-1.69962
-1.69485
-1.6914
-1.68915
-1.68805
-20.2384
-20.1408
-19.9466
-19.6577
-19.2777
-18.8114
-18.2657
-17.649
-16.9717
-16.2453
-15.4822
-14.6951
-13.8964
-13.0974
-12.3086
-11.5388
-10.7951
-10.0832
-9.40721
-8.76972
-8.17208
-7.61456
-7.09657
-6.61685
-6.17369
-5.76504
-5.38869
-5.04235
-4.72375
-4.43073
-4.16124
-3.91344
-3.68567
-3.47645
-3.2845
-3.10867
-2.94795
-2.80141
-2.6682
-2.54751
-2.43855
-2.34057
-2.25282
-2.17455
-2.10503
-2.04354
-1.98938
-1.94189
-1.90041
-1.86435
-1.83316
-1.8063
-1.78329
-1.76371
-1.74714
-1.73324
-1.72168
-1.71218
-1.7045
-1.69842
-1.69376
-1.69039
-1.6882
-1.68712
-20.3872
-20.288
-20.0905
-19.7963
-19.4086
-18.932
-18.3733
-17.7411
-17.0463
-16.3013
-15.5191
-14.7135
-13.8974
-13.0828
-12.2806
-11.4997
-10.7473
-10.0292
-9.34907
-8.7094
-8.11121
-7.55447
-7.03828
-6.5611
-6.12097
-5.71564
-5.34273
-4.99981
-4.68451
-4.39457
-4.12791
-3.88265
-3.65713
-3.4499
-3.25971
-3.08546
-2.92617
-2.78095
-2.64899
-2.52949
-2.4217
-2.32487
-2.23826
-2.16111
-2.09268
-2.03226
-1.97912
-1.93259
-1.89204
-1.85684
-1.82644
-1.80031
-1.77798
-1.759
-1.74299
-1.72958
-1.71845
-1.70933
-1.70196
-1.69615
-1.69171
-1.6885
-1.68642
-1.6854
-20.5981
-20.4969
-20.295
-19.9936
-19.5952
-19.1042
-18.5269
-17.8725
-17.1525
-16.3804
-15.5708
-14.7383
-13.8972
-13.0604
-12.2391
-11.4425
-10.6781
-9.95122
-9.26552
-8.62302
-8.02433
-7.46895
-6.95554
-6.48214
-6.04646
-5.64595
-5.278
-4.94
-4.62941
-4.34387
-4.08121
-3.83952
-3.61715
-3.41269
-3.22495
-3.05288
-2.89557
-2.75219
-2.62196
-2.50413
-2.39798
-2.30277
-2.21775
-2.14219
-2.07531
-2.01639
-1.9647
-1.91955
-1.88029
-1.84631
-1.81703
-1.79194
-1.77055
-1.75243
-1.73718
-1.72446
-1.71394
-1.70535
-1.69844
-1.69301
-1.68887
-1.68589
-1.68396
-1.68301
-20.8637
-20.7603
-20.5534
-20.2436
-19.8324
-19.3233
-18.7225
-18.0396
-17.287
-16.4799
-15.6345
-14.7675
-13.8944
-13.0292
-12.1838
-11.3676
-10.5882
-9.85063
-9.15831
-8.51271
-7.91386
-7.36063
-6.85109
-6.38277
-5.95293
-5.55869
-5.19714
-4.86544
-4.56085
-4.28088
-4.02325
-3.78602
-3.56756
-3.36652
-3.18177
-3.01237
-2.85748
-2.71635
-2.58824
-2.47248
-2.36836
-2.27516
-2.19215
-2.11857
-2.05365
-1.99662
-1.94675
-1.90333
-1.8657
-1.83323
-1.80536
-1.78155
-1.76134
-1.74429
-1.73001
-1.71814
-1.70838
-1.70045
-1.69411
-1.68915
-1.68539
-1.68269
-1.68095
-1.6801
-21.1777
-21.072
-20.8601
-20.5413
-20.1157
-19.5858
-18.9571
-18.2396
-17.4472
-16.5971
-15.7081
-14.799
-13.8873
-12.9881
-12.1139
-11.2748
-10.4779
-9.72832
-9.02879
-8.3802
-7.78183
-7.23177
-6.72734
-6.26547
-5.84289
-5.45632
-5.10253
-4.77842
-4.48104
-4.20769
-3.956
-3.72399
-3.51005
-3.31291
-3.13158
-2.96522
-2.81308
-2.67451
-2.54884
-2.43546
-2.33368
-2.24284
-2.16218
-2.09095
-2.02833
-1.97355
-1.92583
-1.88445
-1.84872
-1.81804
-1.79181
-1.76952
-1.75069
-1.73488
-1.72172
-1.71085
-1.70198
-1.69482
-1.68914
-1.68473
-1.68142
-1.67906
-1.67754
-1.67681
-21.5338
-21.4263
-21.21
-20.8824
-20.4419
-19.889
-19.2284
-18.4705
-17.6309
-16.7298
-15.7891
-14.8305
-13.8738
-12.9355
-12.0287
-11.1637
-10.3476
-9.58491
-8.87801
-8.22693
-7.63003
-7.0844
-6.5865
-6.1325
-5.71859
-5.34106
-4.99634
-4.68104
-4.39197
-4.12621
-3.88126
-3.65507
-3.44613
-3.25327
-3.07565
-2.91257
-2.76343
-2.62765
-2.50466
-2.39388
-2.29472
-2.20651
-2.12852
-2.05995
-1.99996
-1.94773
-1.90245
-1.86337
-1.8298
-1.80112
-1.77675
-1.75615
-1.73887
-1.72446
-1.71255
-1.70281
-1.69492
-1.68862
-1.68369
-1.67991
-1.6771
-1.67511
-1.67385
-1.67324
-21.9263
-21.8179
-21.5983
-21.2632
-20.8081
-20.2309
-19.5349
-18.7307
-17.8364
-16.8758
-15.8752
-14.8599
-13.8521
-12.8699
-11.9271
-11.0339
-10.1971
-9.42086
-8.70684
-8.05419
-7.46007
-6.9204
-6.43057
-5.98594
-5.58211
-5.21494
-4.88054
-4.57522
-4.29549
-4.03821
-3.80067
-3.58082
-3.37719
-3.18884
-3.0151
-2.85547
-2.70946
-2.57663
-2.45647
-2.3485
-2.25215
-2.16682
-2.09176
-2.02614
-1.96906
-1.91965
-1.87706
-1.84052
-1.80933
-1.78284
-1.76049
-1.74175
-1.72615
-1.71326
-1.70272
-1.69418
-1.68737
-1.68202
-1.67789
-1.67479
-1.67253
-1.67097
-1.66998
-1.66951
-22.3497
-22.2414
-22.0208
-21.6804
-21.2121
-20.6103
-19.8758
-19.0194
-18.0621
-17.0331
-15.9641
-14.8847
-13.8201
-12.7899
-11.8082
-10.8848
-10.0264
-9.23651
-8.51606
-7.86313
-7.27347
-6.74152
-6.26145
-5.82774
-5.43537
-5.07983
-4.75693
-4.46268
-4.19329
-3.94529
-3.71577
-3.5026
-3.3045
-3.12075
-2.95095
-2.79481
-2.65202
-2.52221
-2.40499
-2.29993
-2.20656
-2.1243
-2.05241
-1.99
-1.9361
-1.88976
-1.85009
-1.81628
-1.78763
-1.7635
-1.74332
-1.72656
-1.71276
-1.70149
-1.6924
-1.68515
-1.67948
-1.67513
-1.67188
-1.66951
-1.66784
-1.66672
-1.66603
-1.66571
-22.7983
-22.692
-22.4732
-22.1311
-21.6525
-21.0267
-20.2511
-19.3361
-18.307
-17.1998
-16.0533
-14.9024
-13.7758
-12.6938
-11.6708
-10.7161
-9.8355
-9.03218
-8.30634
-7.65486
-7.07169
-6.54948
-6.08097
-5.65971
-5.28013
-4.93741
-4.62711
-4.34498
-4.08688
-3.84894
-3.62793
-3.42169
-3.22916
-3.04997
-2.88406
-2.7314
-2.59182
-2.46506
-2.35082
-2.24874
-2.15845
-2.07942
-2.01092
-1.95198
-1.9015
-1.85846
-1.8219
-1.791
-1.76504
-1.7434
-1.72549
-1.71082
-1.6989
-1.68934
-1.68176
-1.67586
-1.67138
-1.66808
-1.66574
-1.66414
-1.6631
-1.66246
-1.66209
-1.66193
-23.2667
-23.1645
-22.9515
-22.6125
-22.1279
-21.4802
-20.6613
-19.681
-18.57
-17.3738
-16.1402
-14.9106
-13.7168
-12.5803
-11.5143
-10.5273
-9.62444
-8.80816
-8.07832
-7.43044
-6.8562
-6.34596
-5.8909
-5.4836
-5.11803
-4.78921
-4.49254
-4.22352
-3.97764
-3.75052
-3.53845
-3.33923
-3.15215
-2.97735
-2.81518
-2.6659
-2.52949
-2.40577
-2.2945
-2.19542
-2.10825
-2.0326
-1.9677
-1.91246
-1.86565
-1.8261
-1.79283
-1.76497
-1.74182
-1.72276
-1.70723
-1.69472
-1.68477
-1.67695
-1.67093
-1.66642
-1.66318
-1.66097
-1.65957
-1.65878
-1.6584
-1.65826
-1.65822
-1.65823
-23.7494
-23.6538
-23.4516
-23.122
-22.6377
-21.9717
-21.1081
-20.055
-18.8503
-17.5529
-16.222
-14.9064
-13.6412
-12.4478
-11.3379
-10.3185
-9.39335
-8.56476
-7.83258
-7.19094
-6.62849
-6.13266
-5.69296
-5.30107
-4.95058
-4.63659
-4.35449
-4.09952
-3.86682
-3.65128
-3.44852
-3.25624
-3.07434
-2.90362
-2.74494
-2.59889
-2.46559
-2.34485
-2.2365
-2.14038
-2.05635
-1.98417
-1.92309
-1.87181
-1.82888
-1.79303
-1.76317
-1.73846
-1.71821
-1.70181
-1.68872
-1.67844
-1.6705
-1.66448
-1.66005
-1.65695
-1.65496
-1.65386
-1.65345
-1.6535
-1.65381
-1.65418
-1.6545
-1.65468
-24.2405
-24.1547
-23.9692
-23.6571
-23.1813
-22.5026
-21.5937
-20.4594
-19.1471
-17.7345
-16.2956
-14.8868
-13.5468
-12.2955
-11.1413
-10.0896
-9.14256
-8.30223
-7.56963
-6.93744
-6.39012
-5.91133
-5.48888
-5.11369
-4.77915
-4.48078
-4.21407
-3.97405
-3.75551
-3.5524
-3.35925
-3.17365
-2.99645
-2.82938
-2.67385
-2.53086
-2.40058
-2.28274
-2.17725
-2.084
-2.00304
-1.93441
-1.87738
-1.83034
-1.79152
-1.75952
-1.7332
-1.71172
-1.69442
-1.68073
-1.67013
-1.66213
-1.65624
-1.65205
-1.64921
-1.64753
-1.6468
-1.64684
-1.64743
-1.64835
-1.64937
-1.65029
-1.65096
-1.65132
-24.7345
-24.662
-24.5001
-24.2151
-23.7585
-23.0751
-22.1218
-20.8963
-19.4592
-17.9156
-16.3576
-14.8488
-13.4315
-12.1223
-10.9245
-9.84116
-8.87259
-8.02075
-7.28982
-6.67103
-6.14278
-5.68371
-5.28035
-4.92299
-4.60496
-4.3228
-4.07222
-3.84797
-3.64469
-3.455
-3.27173
-3.09226
-2.9191
-2.75512
-2.6023
-2.4622
-2.33489
-2.21985
-2.11711
-2.02659
-1.94856
-1.88354
-1.83083
-1.78834
-1.75385
-1.72585
-1.70316
-1.68494
-1.67062
-1.65969
-1.65161
-1.64591
-1.64211
-1.63975
-1.63851
-1.63822
-1.63876
-1.63995
-1.64156
-1.64337
-1.64513
-1.64661
-1.64766
-1.64819
-25.2258
-25.1703
-25.0396
-24.793
-24.369
-23.6923
-22.6968
-21.3686
-19.7852
-18.0926
-16.4043
-14.7888
-13.2933
-11.928
-10.6875
-9.57394
-8.58427
-7.72037
-6.99328
-6.39288
-5.88835
-5.45163
-5.06901
-4.73043
-4.42911
-4.16357
-3.92976
-3.72198
-3.53517
-3.36018
-3.18702
-3.01279
-2.84273
-2.6812
-2.5306
-2.39322
-2.26888
-2.15652
-2.05642
-1.96846
-1.89308
-1.8317
-1.78366
-1.74608
-1.71614
-1.69225
-1.67326
-1.6583
-1.64698
-1.63881
-1.63325
-1.62989
-1.6282
-1.62768
-1.62801
-1.6291
-1.63089
-1.63323
-1.63589
-1.63861
-1.64113
-1.64319
-1.64461
-1.64533
-25.7088
-25.6743
-25.583
-25.3877
-25.0124
-24.3576
-23.3252
-21.8804
-20.1228
-18.261
-16.4318
-14.7033
-13.1305
-11.7128
-10.4309
-9.28911
-8.27883
-7.40083
-6.67982
-6.10421
-5.62898
-5.21687
-4.85647
-4.53746
-4.25248
-4.00378
-3.78735
-3.59654
-3.42764
-3.26904
-3.10623
-2.9358
-2.76768
-2.60793
-2.45889
-2.32418
-2.20291
-2.09305
-1.9955
-1.90989
-1.83671
-1.77897
-1.73606
-1.70385
-1.67863
-1.65896
-1.6437
-1.63196
-1.6236
-1.6182
-1.61517
-1.61415
-1.61461
-1.61593
-1.61777
-1.62019
-1.62322
-1.62672
-1.63042
-1.63409
-1.63741
-1.64005
-1.64185
-1.64274
-26.1783
-26.1687
-26.1252
-25.9952
-25.6881
-25.0753
-24.0149
-22.4371
-20.4682
-18.4152
-16.4365
-14.588
-12.9414
-11.4776
-10.1553
-8.98831
-7.95815
-7.06139
-6.34869
-5.80646
-5.36725
-4.98118
-4.64426
-4.34555
-4.07572
-3.84399
-3.64563
-3.47184
-3.32256
-3.18275
-3.03059
-2.86166
-2.6941
-2.53553
-2.38721
-2.25523
-2.13735
-2.02969
-1.93465
-1.85117
-1.77946
-1.72534
-1.68822
-1.66194
-1.64154
-1.62615
-1.61465
-1.60602
-1.6006
-1.59798
-1.59743
-1.59877
-1.60142
-1.60456
-1.60783
-1.61152
-1.61577
-1.62043
-1.6252
-1.62982
-1.63397
-1.63723
-1.6394
-1.64045
-26.6292
-26.6481
-26.661
-26.6112
-26.3947
-25.8498
-24.7763
-23.0466
-20.8154
-18.5481
-16.4153
-14.438
-12.7246
-11.2247
-9.86099
-8.67361
-7.62506
-6.70049
-5.99842
-5.50134
-5.10639
-4.74605
-4.43374
-4.15628
-3.89916
-3.68459
-3.50524
-3.34776
-3.22021
-3.10264
-2.96153
-2.79048
-2.62196
-2.46427
-2.31545
-2.18651
-2.07263
-1.96658
-1.87417
-1.79268
-1.72124
-1.67069
-1.64032
-1.62068
-1.60507
-1.59399
-1.58629
-1.58057
-1.57803
-1.57821
-1.58008
-1.58379
-1.58869
-1.59364
-1.59823
-1.6031
-1.60855
-1.61437
-1.62021
-1.62582
-1.63084
-1.63472
-1.63725
-1.63846
-27.0572
-27.1078
-27.1849
-27.2305
-27.1298
-26.6857
-25.6226
-23.7196
-21.1541
-18.6511
-16.3669
-14.2471
-12.4787
-10.9581
-9.54778
-8.34753
-7.28404
-6.31529
-5.62653
-5.19107
-4.85058
-4.51251
-4.22611
-3.97155
-3.72265
-3.52579
-3.367
-3.22371
-3.12052
-3.03024
-2.90084
-2.72196
-2.55102
-2.3945
-2.24323
-2.11807
-2.00929
-1.90377
-1.81435
-1.73491
-1.66179
-1.61478
-1.59256
-1.58048
-1.56936
-1.56261
-1.55879
-1.55564
-1.55595
-1.55898
-1.56313
-1.56924
-1.57649
-1.58325
-1.58899
-1.59494
-1.60156
-1.60857
-1.61548
-1.62208
-1.62804
-1.63256
-1.63543
-1.63677
-27.4583
-27.5431
-27.6912
-27.847
-27.8896
-27.5871
-26.5702
-24.4721
-21.4683
-18.7137
-16.2935
-14.0067
-12.2027
-10.6848
-9.21366
-8.01307
-6.9421
-5.90084
-5.22918
-4.8786
-4.6054
-4.28066
-4.02227
-3.7939
-3.54529
-3.36765
-3.23221
-3.0985
-3.02308
-2.96741
-2.8509
-2.65515
-2.48081
-2.32689
-2.16988
-2.04991
-1.94816
-1.84105
-1.75547
-1.6786
-1.60063
-1.55722
-1.54519
-1.54186
-1.53447
-1.53211
-1.53237
-1.53122
-1.53437
-1.54039
-1.5466
-1.55512
-1.56489
-1.57347
-1.5801
-1.58701
-1.5948
-1.60302
-1.61099
-1.61861
-1.62559
-1.63075
-1.63392
-1.63537
-27.8291
-27.9499
-28.1743
-28.4538
-28.6684
-28.5569
-27.639
-25.3278
-21.7317
-18.7235
-16.2029
-13.7044
-11.8955
-10.416
-8.85348
-7.67357
-6.61032
-5.44895
-4.80088
-4.56801
-4.37852
-4.04897
-3.8228
-3.62697
-3.36502
-3.21006
-3.10299
-2.97002
-2.92693
-2.91645
-2.81501
-2.58809
-2.4106
-2.26267
-2.09417
-1.98198
-1.89046
-1.77784
-1.69784
-1.62487
-1.53695
-1.49744
-1.49857
-1.5055
-1.50034
-1.50253
-1.5073
-1.50721
-1.51328
-1.52258
-1.53042
-1.54141
-1.55396
-1.5644
-1.57155
-1.57928
-1.58826
-1.59773
-1.60673
-1.61536
-1.6235
-1.62931
-1.63272
-1.63424
-28.167
-28.3246
-28.6289
-29.0432
-29.4584
-29.5956
-28.8528
-26.3225
-21.9037
-18.6658
-16.1127
-13.3205
-11.5564
-10.1699
-8.45654
-7.33272
-6.30611
-4.94631
-4.33418
-4.26485
-4.18061
-3.81326
-3.62786
-3.47631
-3.17797
-3.05274
-2.98288
-2.83484
-2.83052
-2.8802
-2.79788
-2.51722
-2.3394
-2.20402
-2.01405
-1.91416
-1.83814
-1.71291
-1.64175
-1.57549
-1.4694
-1.43467
-1.45316
-1.47237
-1.46669
-1.47387
-1.48397
-1.48339
-1.49265
-1.50572
-1.5145
-1.52807
-1.54378
-1.55615
-1.56328
-1.57169
-1.58192
-1.59273
-1.6027
-1.61232
-1.6218
-1.62825
-1.63182
-1.63335
-28.4704
-28.6644
-29.0499
-29.607
-30.2492
-30.7002
-30.2386
-27.5106
-21.9207
-18.5246
-16.0557
-12.8246
-11.1845
-9.97514
-8.0031
-6.9944
-6.05653
-4.37185
-3.81961
-3.97663
-4.02668
-3.56513
-3.43717
-3.35052
-2.97743
-2.89531
-2.87773
-2.68757
-2.73156
-2.86211
-2.80635
-2.43664
-2.26597
-2.15472
-1.92614
-1.84629
-1.79423
-1.64405
-1.58747
-1.53321
-1.39583
-1.36794
-1.40961
-1.44377
-1.43289
-1.44609
-1.46297
-1.45936
-1.47243
-1.49012
-1.49866
-1.51503
-1.53445
-1.5489
-1.55519
-1.5642
-1.57576
-1.58803
-1.59887
-1.6094
-1.62054
-1.62758
-1.6312
-1.6327
-28.7382
-28.9674
-29.4329
-30.1364
-31.0278
-31.862
-31.8247
-28.9749
-21.6865
-18.283
-16.0876
-12.168
-10.7791
-9.8757
-7.45923
-6.6626
-5.90293
-3.69269
-3.24592
-3.7131
-3.93796
-3.28976
-3.25006
-3.26293
-2.75236
-2.73733
-2.79684
-2.51994
-2.627
-2.86621
-2.85042
-2.33685
-2.18893
-2.12093
-1.82505
-1.77818
-1.76343
-1.56749
-1.53528
-1.50226
-1.31293
-1.29611
-1.36881
-1.42156
-1.39781
-1.41908
-1.44523
-1.43445
-1.45255
-1.47622
-1.4826
-1.5022
-1.52608
-1.54289
-1.54713
-1.55672
-1.56978
-1.58368
-1.59523
-1.60653
-1.61979
-1.62733
-1.63083
-1.63223
-28.9701
-29.2321
-29.774
-30.6231
-31.7788
-33.0654
-33.6378
-30.8403
-21.0562
-17.9248
-16.2977
-11.275
-10.3401
-9.93851
-6.76968
-6.34132
-5.90748
-2.85843
-2.60113
-3.48638
-3.94449
-2.96285
-3.0656
-3.23387
-2.48531
-2.57838
-2.7546
-2.31943
-2.51316
-2.89693
-2.9447
-2.20323
-2.10685
-2.11241
-1.70232
-1.70965
-1.75291
-1.47715
-1.48544
-1.48898
-1.21557
-1.21799
-1.33186
-1.40831
-1.35956
-1.39272
-1.4321
-1.40761
-1.43295
-1.46473
-1.46585
-1.48946
-1.51881
-1.53845
-1.53884
-1.54919
-1.56396
-1.57976
-1.59176
-1.60358
-1.61965
-1.6275
-1.6307
-1.63193
-29.1666
-29.4583
-30.0706
-31.059
-32.4848
-34.2859
-35.6965
-33.2934
-19.8172
-17.4372
-16.8227
-10.0297
-9.86885
-10.263
-5.84811
-6.03451
-6.16182
-1.79322
-1.87446
-3.31045
-4.08857
-2.54659
-2.8829
-3.29375
-2.14942
-2.41836
-2.77264
-2.06748
-2.38604
-2.95865
-3.11048
-2.01377
-2.01853
-2.14399
-1.54502
-1.64065
-1.77335
-1.36361
-1.43823
-1.50275
-1.09605
-1.13255
-1.3001
-1.40763
-1.31515
-1.36693
-1.42566
-1.37717
-1.41357
-1.45666
-1.44768
-1.47672
-1.51279
-1.53605
-1.52997
-1.54157
-1.55829
-1.57637
-1.58845
-1.60035
-1.6203
-1.62811
-1.63076
-1.63176
-29.3287
-29.6463
-30.3211
-31.4375
-33.1272
-35.4883
-38.002
-36.6094
-17.661
-16.8152
-17.8647
-8.25814
-9.36909
-10.9939
-4.56419
-5.74623
-6.79835
-0.384824
-1.06005
-3.19994
-4.42957
-1.98426
-2.7016
-3.48709
-1.70454
-2.25777
-2.88256
-1.73692
-2.24213
-3.05474
-3.3784
-1.73623
-1.92344
-2.23754
-1.33381
-1.5714
-1.84036
-1.21266
-1.39399
-1.55718
-0.942949
-1.0393
-1.27501
-1.42452
-1.26008
-1.34166
-1.42891
-1.34065
-1.39448
-1.45353
-1.427
-1.46394
-1.50818
-1.53635
-1.51996
-1.53384
-1.55278
-1.57367
-1.58533
-1.59658
-1.622
-1.62918
-1.63101
-1.6317
-29.4581
-29.7973
-30.525
-31.7533
-33.6877
-36.6271
-40.5232
-41.1868
-14.1495
-16.0671
-19.7135
-5.70576
-8.84943
-12.3376
-2.7271
-5.48094
-8.00469
1.52982
-0.162791
-3.16748
-5.05012
-1.19344
-2.52269
-3.87758
-1.09215
-2.09839
-3.1294
-1.28861
-2.07973
-3.18613
-3.79213
-1.3244
-1.82226
-2.42449
-1.04048
-1.50265
-1.97626
-1.00359
-1.35316
-1.6715
-0.739669
-0.93889
-1.25799
-1.46587
-1.18779
-1.31709
-1.44611
-1.29442
-1.37585
-1.45745
-1.40221
-1.4512
-1.50513
-1.54027
-1.50803
-1.52611
-1.54741
-1.57189
-1.58244
-1.59191
-1.62516
-1.63069
-1.63142
-1.63176
-29.5567
-29.9129
-30.6831
-32.0033
-34.1499
-37.6468
-43.1752
-47.5936
-8.67058
-15.2232
-22.774
-2.00869
-8.3266
-14.5818
-0.0649207
-5.24409
-10.0415
4.18325
0.79287
-3.21922
-6.06417
-0.0575126
-2.34962
-4.55427
-0.2289
-1.94406
-3.57579
-0.667128
-1.90108
-3.34888
-4.41306
-0.71343
-1.71775
-2.74877
-0.624816
-1.43606
-2.21221
-0.7069
-1.31648
-1.87247
-0.462498
-0.834035
-1.25
-1.54115
-1.08892
-1.29372
-1.48325
-1.23325
-1.35813
-1.47134
-1.37098
-1.43876
-1.50373
-1.54908
-1.49307
-1.5186
-1.54217
-1.57135
-1.57989
-1.58583
-1.63034
-1.63262
-1.63199
-1.63193
-29.627
-29.9956
-30.797
-32.1866
-34.5011
-38.4862
-45.791
-56.6247
-0.383761
-14.347
-27.5975
3.34136
-7.83004
-18.1196
3.80033
-5.04318
-13.2639
7.901
1.75036
-3.34784
-7.62729
1.58463
-2.18983
-5.63898
1.00124
-1.80195
-4.30695
0.204712
-1.71555
-3.53083
-5.3262
0.185934
-1.6159
-3.27033
-0.0307629
-1.37476
-2.59082
-0.281615
-1.28512
-2.19654
-0.0782146
-0.730757
-1.25097
-1.66315
-0.950554
-1.27255
-1.54842
-1.14984
-1.34216
-1.49916
-1.33009
-1.42727
-1.50394
-1.56454
-1.47353
-1.51178
-1.53702
-1.57245
-1.57786
-1.57767
-1.63836
-1.63488
-1.63274
-1.63226
-29.6713
-30.0479
-30.8695
-32.3048
-34.7339
-39.0855
-48.0826
-69.3723
11.8443
-13.5501
-34.9185
11.0384
-7.40831
-23.4771
9.38194
-4.88923
-18.1468
13.1304
2.60398
-3.5224
-9.94934
3.9508
-2.05678
-7.29482
2.75627
-1.68418
-5.43634
1.43258
-1.54408
-3.70686
-6.6475
1.49418
-1.52742
-4.0692
0.8181
-1.32404
-3.16916
0.327923
-1.26095
-2.69241
0.458868
-0.640117
-1.2589
-1.84908
-0.755119
-1.25543
-1.65241
-1.0342
-1.32939
-1.54611
-1.27502
-1.41789
-1.50552
-1.589
-1.4473
-1.50641
-1.53185
-1.57571
-1.57663
-1.56651
-1.65034
-1.63734
-1.63375
-1.63281
-29.6924
-30.0728
-30.9042
-32.3616
-34.8479
-39.3972
-49.5927
-87.3097
29.5161
-13.0104
-45.6947
22.0099
-7.13712
-31.3441
17.362
-4.7987
-25.3137
20.4749
3.17691
-3.67429
-13.3098
7.32975
-1.97229
-9.73559
5.24712
-1.60978
-7.11191
3.15888
-1.42483
-3.83241
-8.53237
3.37131
-1.46923
-5.2496
2.02417
-1.29183
-4.02159
1.19624
-1.24633
-3.42332
1.21114
-0.579615
-1.26783
-2.12095
-0.478389
-1.24432
-1.80833
-0.871884
-1.321
-1.61784
-1.1986
-1.41141
-1.50671
-1.62446
-1.41038
-1.50257
-1.5253
-1.58067
-1.57549
-1.54998
-1.66666
-1.6386
-1.634
-1.63256
)
;

boundaryField
{
    left
    {
        type            calculated;
        value           nonuniform List<scalar> 
32
(
-20.1602
-20.2384
-20.3872
-20.5981
-20.8637
-21.1777
-21.5338
-21.9263
-22.3497
-22.7983
-23.2667
-23.7494
-24.2405
-24.7345
-25.2258
-25.7088
-26.1783
-26.6292
-27.0572
-27.4583
-27.8291
-28.167
-28.4704
-28.7382
-28.9701
-29.1666
-29.3287
-29.4581
-29.5567
-29.627
-29.6713
-29.6924
)
;
    }
    right
    {
        type            calculated;
        value           nonuniform List<scalar> 
32
(
-1.68805
-1.68712
-1.6854
-1.68301
-1.6801
-1.67681
-1.67324
-1.66951
-1.66571
-1.66193
-1.65823
-1.65468
-1.65132
-1.64819
-1.64533
-1.64274
-1.64045
-1.63846
-1.63677
-1.63537
-1.63424
-1.63335
-1.6327
-1.63223
-1.63193
-1.63176
-1.6317
-1.63176
-1.63193
-1.63226
-1.63281
-1.63256
)
;
    }
    interface
    {
        type            calculated;
        value           nonuniform List<scalar> 
64
(
-29.6974
-30.0788
-30.9125
-32.3753
-34.8757
-39.4766
-50.0828
-97.7866
39.9263
-12.8319
-52.0815
28.4464
-7.05061
-36.0024
22.0485
-4.77176
-29.5562
24.7624
3.36588
-3.73313
-15.2894
9.31343
-1.9455
-11.1824
6.70654
-1.58628
-8.10707
4.16701
-1.3843
-3.87553
-9.63786
4.47486
-1.45027
-5.94985
2.73113
-1.28152
-4.52678
1.70574
-1.2417
-3.85641
1.65007
-0.559516
-1.27146
-2.28141
-0.316158
-1.24047
-1.90102
-0.776893
-1.31798
-1.66058
-1.1539
-1.40891
-1.50682
-1.6451
-1.38855
-1.50092
-1.52136
-1.58337
-1.57471
-1.53991
-1.67584
-1.63861
-1.63368
-1.63196
)
;
    }
    bottom
    {
        type            calculated;
        value           nonuniform List<scalar> 
64
(
-20.1398
-20.0432
-19.8512
-19.566
-19.1912
-18.7318
-18.1947
-17.5882
-16.9223
-16.2081
-15.4575
-14.6826
-13.8952
-13.1066
-12.3267
-11.5641
-10.8262
-10.1186
-9.44541
-8.80946
-8.21227
-7.65431
-7.1352
-6.65387
-6.20874
-5.79793
-5.41933
-5.07074
-4.74997
-4.45491
-4.18354
-3.93405
-3.70477
-3.49421
-3.30108
-3.12419
-2.96251
-2.81508
-2.68103
-2.55953
-2.44979
-2.35104
-2.26253
-2.18352
-2.11327
-2.05108
-1.99624
-1.94809
-1.90601
-1.86938
-1.83765
-1.8103
-1.78685
-1.76686
-1.74993
-1.7357
-1.72385
-1.7141
-1.7062
-1.69994
-1.69514
-1.69166
-1.6894
-1.68829
)
;
    }
    defaultFaces
    {
        type            empty;
    }
}


// ************************************************************************* //
