/*--------------------------------*- C++ -*----------------------------------*\
| =========                 |                                                 |
| \\      /  F ield         | OpenFOAM: The Open Source CFD Toolbox           |
|  \\    /   O peration     | Version:  5.x                                   |
|   \\  /    A nd           | Web:      www.OpenFOAM.org                      |
|    \\/     M anipulation  |                                                 |
\*---------------------------------------------------------------------------*/
FoamFile
{
    version     2.0;
    format      ascii;
    class       volScalarField;
    location    "8.8";
    object      gradTx;
}
// * * * * * * * * * * * * * * * * * * * * * * * * * * * * * * * * * * * * * //

dimensions      [0 -1 0 1 0 0 0];

internalField   nonuniform List<scalar> 
2048
(
0.0221932
0.0663324
0.109708
0.151743
0.19178
0.229089
0.262911
0.292516
0.317282
0.336758
0.350714
0.359156
0.362315
0.360611
0.354603
0.344943
0.332325
0.317444
0.300966
0.283496
0.265564
0.247614
0.229999
0.21299
0.196777
0.181484
0.167179
0.153883
0.141578
0.13022
0.119743
0.110069
0.101117
0.092807
0.0850673
0.0778362
0.0710637
0.0647111
0.05875
0.0531606
0.0479299
0.0430493
0.0385128
0.0343148
0.0304486
0.0269059
0.0236755
0.020744
0.018096
0.0157145
0.0135816
0.0116787
0.0099871
0.00848809
0.00716335
0.00599498
0.00496555
0.00405809
0.00325601
0.00254297
0.00190273
0.00131903
0.000775538
0.000255899
0.065813
0.196728
0.325436
0.450247
0.569208
0.680133
0.780722
0.868758
0.942345
1.00011
1.04136
1.06613
1.07512
1.06962
1.05132
1.02219
0.984311
0.939772
0.890556
0.838471
0.785093
0.731734
0.679439
0.628997
0.580964
0.535699
0.493392
0.454098
0.417759
0.384236
0.353327
0.324797
0.298398
0.273891
0.251061
0.229726
0.209736
0.19098
0.173374
0.156861
0.141404
0.126981
0.113575
0.101169
0.0897472
0.079283
0.069744
0.0610905
0.0532763
0.046251
0.0399609
0.0343509
0.0293654
0.0249491
0.0210476
0.017608
0.0145787
0.0119097
0.00955207
0.00745756
0.00557828
0.00386612
0.00227251
0.000749622
0.108063
0.323089
0.534678
0.740121
0.936209
1.11927
1.28538
1.43073
1.55204
1.64695
1.71428
1.75412
1.76772
1.7573
1.72576
1.67643
1.61282
1.53842
1.45653
1.37015
1.28189
1.19388
1.10782
1.02499
0.946257
0.872185
0.803061
0.738948
0.679733
0.625167
0.574898
0.528523
0.48562
0.445788
0.408667
0.373955
0.341413
0.310857
0.282158
0.255228
0.230011
0.206475
0.184597
0.164358
0.145729
0.128671
0.113129
0.0990385
0.0863223
0.0748966
0.0646728
0.0555599
0.0474663
0.0403012
0.0339757
0.028403
0.0234992
0.0191827
0.0153739
0.0119946
0.00896683
0.006212
0.00364959
0.00120313
0.149226
0.446301
0.73902
1.02379
1.29617
1.55092
1.78233
1.98475
2.15332
2.28456
2.37678
2.43017
2.44665
2.42952
2.38301
2.31194
2.22131
2.11607
2.00086
1.87989
1.75677
1.63446
1.51524
1.40082
1.29235
1.19054
1.09572
1.00795
0.927037
0.852588
0.784087
0.720939
0.662533
0.608294
0.557715
0.510379
0.465958
0.42421
0.384964
0.34811
0.313582
0.281346
0.251382
0.223671
0.198178
0.17485
0.153615
0.134378
0.117032
0.101459
0.0875366
0.0751372
0.0641341
0.054402
0.0458183
0.0382639
0.0316238
0.0257868
0.0206445
0.0160903
0.0120183
0.00832084
0.00488561
0.00160952
0.189459
0.566879
0.939455
1.30288
1.65154
1.97847
2.27588
2.53596
2.75193
2.91898
3.03486
3.1
3.11715
3.09091
3.02706
2.93203
2.81243
2.67475
2.52503
2.3687
2.21038
2.05381
1.90182
1.75646
1.6191
1.49054
1.37113
1.26086
1.15944
1.0663
0.980744
0.901943
0.829076
0.761379
0.698195
0.638994
0.583369
0.531026
0.481764
0.43546
0.39205
0.351508
0.313825
0.278989
0.246965
0.21769
0.191067
0.166977
0.145278
0.125818
0.108438
0.0929762
0.0792702
0.0671608
0.0564927
0.0471158
0.0388857
0.0316631
0.025313
0.0197024
0.0146991
0.0101681
0.00596589
0.0019641
0.2288
0.684986
1.13642
1.57832
2.00393
2.40439
2.76943
3.08857
3.35264
3.55524
3.69352
3.76828
3.78342
3.74513
3.66097
3.5392
3.38817
3.21596
3.0301
2.83729
2.64315
2.45216
2.26765
2.09193
1.92647
1.77212
1.6292
1.4976
1.37688
1.2663
1.16489
1.0716
0.985347
0.905161
0.830231
0.759918
0.693749
0.63139
0.572622
0.51732
0.465431
0.41695
0.371893
0.330264
0.292032
0.257123
0.22542
0.196769
0.170996
0.147911
0.127318
0.109021
0.092822
0.078529
0.0659544
0.0549181
0.0452478
0.0367784
0.0293501
0.0228058
0.016989
0.0117389
0.00688144
0.00226395
0.267168
0.800443
1.3298
1.85034
2.3542
2.83041
3.26569
3.64614
3.9596
4.1977
4.35698
4.43887
4.44882
4.39499
4.28706
4.1353
3.94992
3.74072
3.51677
3.28608
3.05533
2.82967
2.61284
2.40729
2.21453
2.03536
1.86999
1.71823
1.57945
1.45269
1.3367
1.23012
1.13158
1.03988
0.954054
0.873366
0.797291
0.725469
0.657677
0.593798
0.533802
0.477723
0.425612
0.377502
0.333373
0.29314
0.256658
0.223739
0.19417
0.167721
0.144161
0.123255
0.104775
0.0884924
0.0741898
0.0616575
0.0506972
0.04112
0.0327437
0.0253896
0.0188788
0.0130261
0.00762782
0.00250761
0.304373
0.912745
1.51899
2.11852
2.70252
3.25761
3.76675
4.21172
4.57646
4.85018
5.02884
5.11493
5.11596
5.04259
4.90697
4.72159
4.49862
4.24967
3.98541
3.71528
3.44701
3.18641
2.93747
2.70267
2.48343
2.2804
2.09369
1.92294
1.76735
1.62572
1.49645
1.37782
1.2681
1.16587
1.06998
0.979625
0.89425
0.813489
0.737123
0.665056
0.597294
0.533921
0.475049
0.420752
0.371025
0.32577
0.284809
0.247913
0.214823
0.18527
0.158984
0.135697
0.115143
0.0970639
0.0812098
0.0673428
0.0552401
0.0446914
0.0354953
0.0274536
0.0203675
0.0140285
0.00820419
0.00269481
0.340115
1.02107
1.70288
2.38184
3.04841
3.68645
4.27428
4.78804
5.2066
5.51616
5.71227
5.79905
5.78683
5.68941
5.52178
5.29885
5.03483
4.74312
4.43615
4.12488
3.81817
3.5224
3.24164
2.97825
2.73339
2.50751
2.30054
2.11198
1.94087
1.78571
1.64452
1.51511
1.39536
1.28354
1.17839
1.07904
0.984932
0.895719
0.811197
0.731297
0.656072
0.585676
0.520304
0.460093
0.405057
0.355077
0.309935
0.269348
0.233011
0.200609
0.171835
0.146386
0.123964
0.104278
0.0870451
0.0720002
0.0588976
0.047509
0.0376167
0.0290061
0.0214606
0.0147496
0.0086125
0.00282622
0.374
1.12432
1.87989
2.63865
3.3907
4.11684
4.78958
5.37766
5.85327
6.19891
6.41002
6.49328
6.46282
6.33633
6.13208
5.86749
5.55879
5.22118
4.86891
4.51472
4.16869
3.83762
3.5255
3.23429
2.96476
2.71704
2.49089
2.28571
2.10035
1.93305
1.78136
1.64249
1.51384
1.39338
1.27972
1.17199
1.06967
0.972459
0.880167
0.792755
0.710329
0.633139
0.561497
0.495624
0.435558
0.38115
0.332122
0.288131
0.248814
0.213812
0.182782
0.155386
0.131296
0.110186
0.0917415
0.0756692
0.0617026
0.0495989
0.0391276
0.0300615
0.0221682
0.0151963
0.00885683
0.00290321
0.405545
1.22111
2.04798
2.8867
3.7276
4.54815
5.31366
5.98308
6.51973
6.90154
7.12454
7.19921
7.14476
6.98371
6.738
6.42757
6.07052
5.68374
5.28346
4.8845
4.49833
4.13205
3.78921
3.47111
3.17794
2.90943
2.66518
2.4445
2.24619
2.06819
1.90748
1.76052
1.62411
1.4959
1.37443
1.25887
1.14882
1.04403
0.944321
0.849686
0.760281
0.676479
0.598758
0.527458
0.462637
0.404095
0.351479
0.304366
0.262332
0.224972
0.191907
0.162772
0.137205
0.114851
0.0953565
0.0783999
0.0636967
0.050994
0.0400536
0.0306386
0.0225042
0.015378
0.0089429
0.00292773
0.434198
1.30985
2.20471
3.12318
4.05665
4.97922
5.8473
6.60693
7.20941
7.62715
7.85797
7.91793
7.83293
7.63142
7.33931
6.97891
6.56994
6.13065
5.67943
5.23379
4.80684
4.40569
4.03301
3.68916
3.37346
3.0852
2.82387
2.58879
2.37878
2.19156
2.02343
1.86983
1.72679
1.59167
1.46299
1.3401
1.22274
1.11075
1.00396
0.902362
0.806158
0.715872
0.632221
0.555712
0.486412
0.424037
0.368131
0.318178
0.273681
0.234194
0.199307
0.168629
0.141773
0.118346
0.0979564
0.0802501
0.0649277
0.0517324
0.0404238
0.0307595
0.0224845
0.0153062
0.00887773
0.0029022
0.45936
1.38876
2.34729
3.34467
4.37469
5.4083
6.39114
7.2521
7.92605
8.37884
8.61217
8.65006
8.52703
8.27883
7.93543
7.52118
7.05689
6.5617
6.05637
5.56202
5.09387
4.65855
4.25724
3.88896
3.55195
3.24496
2.9675
2.71903
2.49852
2.30364
2.12982
1.9711
1.82254
1.68126
1.5459
1.41606
1.29178
1.17294
1.05939
0.951072
0.848202
0.751494
0.662017
0.580505
0.507009
0.441109
0.382217
0.329701
0.282986
0.241593
0.205085
0.173049
0.145081
0.12075
0.0996139
0.081283
0.0654478
0.0518554
0.0402698
0.0304474
0.0221265
0.0149935
0.00866936
0.00282947
0.480409
1.45597
2.47265
3.54724
4.67779
5.83296
6.94567
7.92194
8.67389
9.15973
9.38865
9.39567
9.22617
8.92484
8.52553
8.05387
7.53128
6.97676
6.41371
5.8685
5.35906
4.89074
4.46233
4.07117
3.71414
3.38939
3.09666
2.83566
2.60577
2.40487
2.22728
2.06507
1.91204
1.76526
1.62362
1.48714
1.35626
1.23093
1.11091
0.996116
0.88667
0.783518
0.688261
0.601951
0.52456
0.455457
0.393888
0.339082
0.290383
0.247289
0.209346
0.176128
0.147218
0.122146
0.100407
0.0815658
0.0653113
0.0514058
0.0396243
0.0297267
0.0214483
0.0144533
0.00832678
0.00271277
0.496738
1.50961
2.57754
3.72649
4.96127
6.25004
7.51123
8.62051
9.45785
9.9729
10.1885
10.1543
9.92883
9.56795
9.10853
8.57644
7.99319
7.37589
6.75082
6.15231
5.60202
5.10245
4.64881
4.2366
3.8609
3.51921
3.21196
2.93915
2.70085
2.49564
2.31652
2.15256
1.99602
1.84426
1.69662
1.55366
1.41648
1.28501
1.15884
1.03781
0.921831
0.812104
0.711047
0.620156
0.539204
0.467232
0.403302
0.346476
0.296009
0.251406
0.212202
0.17796
0.148271
0.122621
0.100417
0.0811682
0.064574
0.0504268
0.0385201
0.0286212
0.0204676
0.0136999
0.00785992
0.00255578
0.507785
1.54786
2.6587
3.87761
5.21958
6.6554
8.08797
9.35282
10.2837
10.8213
11.0126
10.925
10.6328
10.2062
9.68322
9.08825
8.44294
7.75939
7.0669
6.41232
5.82237
5.29405
4.81733
4.38616
3.99319
3.63523
3.31408
3.02996
2.78394
2.57628
2.39826
2.23448
2.07519
1.91883
1.76532
1.61592
1.47273
1.33547
1.20345
1.0765
0.95398
0.837394
0.730437
0.635219
0.551088
0.476594
0.410628
0.352046
0.300006
0.254069
0.213761
0.178638
0.148324
0.122262
0.0997279
0.0801611
0.0632907
0.0489609
0.0369895
0.027154
0.0192019
0.012748
0.00727977
0.00236268
0.513073
1.56914
2.71293
3.99551
5.44629
7.04374
8.67576
10.1253
11.1585
11.7075
11.8608
11.7063
11.335
10.8375
10.2483
9.58857
8.88129
8.12806
7.36097
6.64697
6.01975
5.46611
4.96864
4.52092
4.11213
3.7382
3.40372
3.10856
2.8551
2.64698
2.47335
2.31185
2.15027
1.98954
1.83012
1.67411
1.52524
1.38261
1.24503
1.11253
0.983445
0.859499
0.746444
0.64723
0.560371
0.483706
0.416039
0.355961
0.30251
0.255401
0.214133
0.178247
0.147457
0.121157
0.0984285
0.0786158
0.0615146
0.0470491
0.0350639
0.0253463
0.0176671
0.011613
0.00659859
0.00213827
0.512245
1.57212
2.73735
4.075
5.63408
7.40827
9.27391
10.9464
12.0908
12.6332
12.7328
12.4963
12.0314
11.4592
10.8027
10.0764
9.30956
8.48335
7.63167
6.85421
6.19396
5.61955
5.1035
4.64209
4.21897
3.82888
3.48167
3.17548
2.91419
2.70778
2.54276
2.38585
2.2219
2.05689
1.89142
1.72835
1.57422
1.42668
1.28378
1.14632
1.01061
0.878488
0.759019
0.656275
0.567235
0.488731
0.419716
0.358397
0.303653
0.255521
0.213427
0.176866
0.145741
0.119394
0.0966103
0.0766027
0.0592955
0.0447305
0.0327742
0.0232174
0.0158776
0.010311
0.00583029
0.00188801
0.505095
1.5559
2.72951
4.11098
5.77475
7.74032
9.88082
11.8271
13.0912
13.5985
13.6275
13.293
12.7168
12.069
11.3455
10.5503
9.72984
8.8277
7.87712
7.03119
6.34502
5.75572
5.22258
4.75104
4.31517
3.90784
3.54879
3.23136
2.96077
2.75843
2.60767
2.45789
2.29059
2.12139
1.94962
1.7786
1.61987
1.468
1.31986
1.17833
1.03594
0.894362
0.768023
0.662451
0.571898
0.491823
0.421844
0.35954
0.303553
0.254546
0.211754
0.174564
0.143239
0.117066
0.0943702
0.0741901
0.056678
0.0420413
0.0301504
0.0207837
0.0138447
0.00885918
0.00499078
0.00161818
0.491588
1.52007
2.68765
4.09872
5.85936
8.02894
10.4933
12.782
14.173
14.6007
14.5431
14.0949
13.3841
12.6646
11.8763
11.0075
10.1452
9.16501
8.09453
7.17401
6.47346
5.87664
5.32626
4.84933
4.40245
3.97536
3.60609
3.27705
2.99404
2.79834
2.66958
2.52969
2.3566
2.1835
2.00514
1.82463
1.6624
1.50689
1.35327
1.20908
1.06003
0.907025
0.773204
0.665876
0.574627
0.493114
0.422613
0.359591
0.302306
0.252589
0.209229
0.171394
0.139995
0.114265
0.0918128
0.0714424
0.0537001
0.0390153
0.0272238
0.0180582
0.0115765
0.00727667
0.00409854
0.00133589
0.471877
1.46476
2.6108
4.03414
5.87842
8.26037
11.1056
13.8309
15.3531
15.6325
15.4777
14.9013
14.0236
13.2445
12.3961
11.4438
10.5603
9.50121
8.27976
7.27733
6.58059
5.98526
5.41431
4.93878
4.48292
4.0312
3.6548
3.31379
3.01264
2.82639
2.73046
2.60336
2.41972
2.24369
2.05856
1.86589
1.70206
1.5438
1.3838
1.23922
1.08367
0.916237
0.774156
0.666724
0.575767
0.492687
0.42222
0.358775
0.299971
0.249757
0.205981
0.16739
0.136038
0.111092
0.089053
0.0684181
0.0503907
0.0356838
0.0240277
0.0150494
0.00907594
0.00558512
0.00317503
0.00104911
0.446296
1.39067
2.49895
3.9142
5.82228
8.41764
11.7076
15.0003
16.6534
16.6791
16.4298
15.7142
14.6214
13.8087
12.9076
11.8516
10.9815
9.84515
8.42661
7.33386
6.66902
6.08577
5.48531
5.0216
4.5593
4.07417
3.69649
3.34341
3.01455
2.84073
2.793
2.68164
2.47903
2.3025
2.1107
1.90135
1.73921
1.57934
1.41086
1.26956
1.10793
0.921543
0.77028
0.66526
0.57577
0.490538
0.420875
0.357356
0.296551
0.246161
0.202161
0.162561
0.131368
0.107657
0.0862202
0.065166
0.0467675
0.0320756
0.0206006
0.0117604
0.00633928
0.00381022
0.0022452
0.000766549
0.415351
1.29908
2.35317
3.73721
5.6817
8.48021
12.283
16.3259
18.1026
17.7148
17.3992
16.5392
15.1577
14.3593
13.4163
12.2179
11.418
10.2097
8.52584
7.33381
6.74327
6.18405
5.53591
5.10062
4.63522
4.10168
3.73325
3.36867
2.99678
2.8385
2.86085
2.76803
2.53246
2.36068
2.16278
1.9293
1.77446
1.61442
1.43331
1.30116
1.13426
0.922179
0.760729
0.6619
0.575237
0.486518
0.418815
0.355659
0.291966
0.241917
0.197953
0.156882
0.125959
0.104086
0.0834632
0.0617208
0.0428348
0.0282179
0.0169894
0.0081871
0.00335399
0.00198371
0.00133779
0.0004975
0.379697
1.19178
2.17561
3.50317
5.4485
8.42394
12.8054
17.8555
19.7387
18.6968
18.3891
17.3885
15.6031
14.9026
13.9323
12.5222
11.8826
10.6134
8.56386
7.26422
6.81066
6.28831
5.55969
5.17966
4.7157
4.1089
3.76796
3.39367
2.95508
2.81548
2.93905
2.86714
2.57618
2.41933
2.2167
1.94693
1.80877
1.65041
1.44912
1.33539
1.16466
0.916936
0.74436
0.657284
0.574967
0.480247
0.416322
0.3541
0.286006
0.237156
0.193598
0.150277
0.119741
0.100527
0.0809565
0.0580965
0.0385812
0.0241366
0.0132547
0.00431559
9.58836e-05
0.000146155
0.000485268
0.000251445
0.340098
1.071
1.96946
3.21406
5.11657
8.22148
13.2343
19.6531
21.6126
19.5583
19.409
18.2835
15.9144
15.4507
14.4722
12.7317
12.3934
11.0818
8.52094
7.10821
6.88236
6.40983
5.54558
5.26413
4.80777
4.08769
3.80468
3.42438
2.8836
2.76564
3.0345
2.98509
2.60381
2.48026
2.27537
1.94988
1.84371
1.68937
1.45498
1.37416
1.20188
0.903979
0.719671
0.652371
0.576023
0.470997
0.413761
0.353234
0.278274
0.232045
0.189409
0.14261
0.112599
0.0971632
0.0789075
0.0542772
0.0339784
0.0198564
0.00947661
0.000119282
-0.00347442
-0.00164902
-0.000276549
3.75792e-05
0.297393
0.939284
1.73885
2.87399
4.68289
7.84342
13.5085
21.8033
23.7925
20.1979
20.4787
19.2597
16.0278
16.0246
15.0621
12.7965
12.976
11.6506
8.36888
6.84428
6.97479
6.56391
5.47573
5.36181
4.92131
4.02516
3.8492
3.46926
2.77436
2.68059
3.15656
3.12996
2.60532
2.54639
2.34313
1.9315
1.88179
1.73437
1.44574
1.42008
1.24962
0.880608
0.684753
0.64855
0.579806
0.457533
0.411633
0.353803
0.268103
0.226812
0.185809
0.133656
0.104361
0.0942197
0.0775646
0.0502063
0.0289806
0.0154012
0.00576333
-0.00444561
-0.0074157
-0.00333016
-0.000909661
-0.000135802
0.252449
0.799384
1.48864
2.48924
4.14867
7.26046
13.5381
24.4169
26.3708
20.4668
21.6341
20.3712
15.8507
16.6582
15.7415
12.6423
13.6661
12.3675
8.06811
6.44556
7.11104
6.77113
5.3228
5.4841
5.07016
3.90168
3.90981
3.54003
2.61675
2.54888
3.31771
3.31254
2.56558
2.6224
2.42635
1.88193
1.92685
1.78989
1.41365
1.4768
1.31284
0.842951
0.63725
0.647778
0.588157
0.437909
0.410656
0.356814
0.254452
0.221785
0.183353
0.123072
0.0947909
0.0919818
0.077227
0.0457713
0.0235262
0.0107919
0.00226111
-0.00944556
-0.0118112
-0.00480014
-0.00137588
-0.000261968
0.206122
0.65409
1.22419
2.06806
3.52038
6.44705
13.1945
27.6378
29.4717
20.1523
22.9356
21.6974
15.2507
17.4035
16.5675
12.1615
14.5139
13.2957
7.56407
5.87929
7.32261
7.0589
5.04643
5.64755
5.27352
3.68848
3.99833
3.65245
2.39687
2.35529
3.53439
3.5471
2.4626
2.71553
2.53409
1.78689
1.98465
1.86232
1.34745
1.5494
1.39802
0.785581
0.574346
0.652714
0.603471
0.4092
0.411874
0.363617
0.235764
0.217446
0.182773
0.110364
0.0835811
0.0908085
0.0782545
0.0407853
0.0175423
0.00604412
-0.000833186
-0.0149768
-0.0167747
-0.00592705
-0.00164001
-0.000336324
0.159221
0.506117
0.951064
1.62032
2.81056
5.38674
12.2969
31.65
33.2615
18.9568
24.4774
23.3507
14.0411
18.3372
17.6214
11.2021
15.5885
14.5169
6.78289
5.10651
7.65114
7.46338
4.58891
5.87594
5.55751
3.34451
4.13145
3.82722
2.09686
2.07992
3.82783
3.85252
2.26525
2.83671
2.67896
1.62613
2.06358
1.96062
1.23115
1.64495
1.51357
0.701057
0.492785
0.666872
0.628837
0.367185
0.416807
0.376008
0.209794
0.214507
0.185009
0.0948381
0.0703479
0.0911496
0.0810791
0.0349651
0.0109526
0.00116212
-0.00325696
-0.0211739
-0.0224572
-0.00653254
-0.00167442
-0.000356722
0.112481
0.357984
0.674705
1.15695
2.03809
4.07979
10.5974
36.6863
37.9616
16.4733
26.4012
25.4849
11.9646
19.5689
19.0149
9.55402
16.9851
16.1352
5.62633
4.08217
8.15003
8.0318
3.87005
6.20289
5.95716
2.81277
4.33252
4.09076
1.69413
1.69728
4.22494
4.25357
1.93057
3.00189
2.878
1.37165
2.17561
2.09696
1.04263
1.77318
1.67012
0.579375
0.388942
0.694754
0.668209
0.30596
0.427639
0.396335
0.173402
0.214011
0.191248
0.0755495
0.054632
0.0935636
0.0862168
0.0279045
0.0036901
-0.0038697
-0.00466404
-0.0282201
-0.0290542
-0.00637755
-0.0014653
-0.000323248
0.0665357
0.211927
0.400194
0.689188
1.22764
2.55329
7.7622
43.0363
43.8635
12.1562
28.9112
28.305
8.67285
21.2511
20.898
6.93375
18.8327
18.2798
3.96613
2.75567
8.88589
8.82535
2.78112
6.67495
6.51855
2.01593
4.63369
4.47599
1.16065
1.1753
4.75918
4.78246
1.40069
3.23373
3.1538
0.985462
2.3373
2.28766
0.752007
1.94734
1.88087
0.407347
0.25896
0.741965
0.726609
0.217487
0.447457
0.427617
0.122302
0.217455
0.202959
0.0512422
0.0359035
0.0987332
0.0942802
0.0190433
-0.00428412
-0.0091
-0.00460389
-0.036359
-0.0368145
-0.00514554
-0.00102093
-0.000237214
0.0219158
0.0698336
0.131992
0.22778
0.408138
0.874019
3.35132
51.056
51.3465
5.28807
32.293
32.0774
3.70414
23.5907
23.4682
2.96594
21.3033
21.1086
1.63775
1.0722
9.93956
9.92247
1.17798
7.35534
7.30108
0.8514
5.07861
5.02289
0.462239
0.474366
5.47135
5.48071
0.599151
3.56358
3.5356
0.417142
2.57114
2.55403
0.31968
2.18522
2.16194
0.167913
0.0989645
0.815285
0.810363
0.0910883
0.48053
0.473664
0.0507889
0.226946
0.221912
0.0202839
0.0135744
0.10748
0.105992
0.00763307
-0.0129563
-0.0146285
-0.00249786
-0.0459081
-0.046048
-0.00242307
-0.000382079
-9.90839e-05
)
;

boundaryField
{
    left
    {
        type            calculated;
        value           uniform 0;
    }
    right
    {
        type            calculated;
        value           uniform 0;
    }
    interface
    {
        type            calculated;
        value           nonuniform List<scalar> 
64
(
0.0219158
0.0698336
0.131992
0.22778
0.408138
0.874019
3.35132
51.056
51.3465
5.28807
32.293
32.0774
3.70414
23.5907
23.4682
2.96594
21.3033
21.1086
1.63775
1.0722
9.93956
9.92247
1.17798
7.35534
7.30108
0.8514
5.07861
5.02289
0.462239
0.474366
5.47135
5.48071
0.599151
3.56358
3.5356
0.417142
2.57114
2.55403
0.31968
2.18522
2.16194
0.167913
0.0989645
0.815285
0.810363
0.0910883
0.48053
0.473664
0.0507889
0.226946
0.221912
0.0202839
0.0135744
0.10748
0.105992
0.00763307
-0.0129563
-0.0146285
-0.00249786
-0.0459081
-0.046048
-0.00242307
-0.000382079
-9.90839e-05
)
;
    }
    bottom
    {
        type            calculated;
        value           nonuniform List<scalar> 
64
(
0.0221932
0.0663324
0.109708
0.151743
0.19178
0.229089
0.262911
0.292516
0.317282
0.336758
0.350714
0.359156
0.362315
0.360611
0.354603
0.344943
0.332325
0.317444
0.300966
0.283496
0.265564
0.247614
0.229999
0.21299
0.196777
0.181484
0.167179
0.153883
0.141578
0.13022
0.119743
0.110069
0.101117
0.092807
0.0850673
0.0778362
0.0710637
0.0647111
0.05875
0.0531606
0.0479299
0.0430493
0.0385128
0.0343148
0.0304486
0.0269059
0.0236755
0.020744
0.018096
0.0157145
0.0135816
0.0116787
0.0099871
0.00848809
0.00716335
0.00599498
0.00496555
0.00405809
0.00325601
0.00254297
0.00190273
0.00131903
0.000775538
0.000255899
)
;
    }
    defaultFaces
    {
        type            empty;
    }
}


// ************************************************************************* //
