/*--------------------------------*- C++ -*----------------------------------*\
| =========                 |                                                 |
| \\      /  F ield         | OpenFOAM: The Open Source CFD Toolbox           |
|  \\    /   O peration     | Version:  5.x                                   |
|   \\  /    A nd           | Web:      www.OpenFOAM.org                      |
|    \\/     M anipulation  |                                                 |
\*---------------------------------------------------------------------------*/
FoamFile
{
    version     2.0;
    format      ascii;
    class       volScalarField;
    location    "8.8";
    object      T;
}
// * * * * * * * * * * * * * * * * * * * * * * * * * * * * * * * * * * * * * //

dimensions      [0 0 0 1 0 0 0];

internalField   nonuniform List<scalar> 
2048
(
9.85531
9.856
9.85738
9.85943
9.86213
9.86543
9.86928
9.87364
9.87843
9.88356
9.88895
9.89452
9.90017
9.90584
9.91144
9.91692
9.92222
9.92731
9.93214
9.93671
9.941
9.94501
9.94874
9.9522
9.95539
9.95835
9.96107
9.96357
9.96587
9.96799
9.96994
9.97174
9.97338
9.9749
9.97628
9.97755
9.97872
9.97978
9.98074
9.98161
9.9824
9.98311
9.98375
9.98431
9.98482
9.98526
9.98566
9.986
9.98631
9.98657
9.9868
9.98699
9.98716
9.98731
9.98743
9.98753
9.98762
9.98769
9.98774
9.98779
9.98782
9.98785
9.98786
9.98787
9.57169
9.57374
9.57783
9.58391
9.5919
9.6017
9.61316
9.6261
9.64031
9.65555
9.67156
9.68809
9.70488
9.72169
9.7383
9.75454
9.77025
9.7853
9.79961
9.81313
9.82582
9.83766
9.84868
9.8589
9.86834
9.87705
9.88508
9.89247
9.89927
9.90552
9.91128
9.91657
9.92143
9.92589
9.92999
9.93374
9.93717
9.94029
9.94313
9.94571
9.94804
9.95013
9.952
9.95368
9.95517
9.95648
9.95764
9.95866
9.95955
9.96033
9.961
9.96158
9.96207
9.96249
9.96285
9.96315
9.9634
9.96361
9.96377
9.9639
9.96401
9.96408
9.96413
9.96415
9.29891
9.30229
9.30901
9.319
9.33214
9.34825
9.36711
9.38842
9.41182
9.43692
9.46329
9.49049
9.51811
9.54573
9.57302
9.59966
9.62541
9.65006
9.67349
9.69558
9.7163
9.73564
9.75361
9.77026
9.78564
9.79983
9.8129
9.82493
9.83599
9.84617
9.85553
9.86413
9.87204
9.87931
9.88597
9.89208
9.89766
9.90275
9.90737
9.91157
9.91535
9.91875
9.9218
9.92452
9.92694
9.92908
9.93096
9.93261
9.93405
9.93531
9.9364
9.93733
9.93813
9.93881
9.93939
9.93988
9.94028
9.94061
9.94088
9.94109
9.94125
9.94137
9.94145
9.94148
9.03573
9.04039
9.04967
9.06349
9.08167
9.10399
9.13013
9.15969
9.19216
9.22698
9.26355
9.30125
9.33949
9.37771
9.41542
9.45218
9.48766
9.5216
9.55379
9.58412
9.61254
9.63902
9.66361
9.68637
9.70739
9.72676
9.74459
9.761
9.77609
9.78997
9.80274
9.81447
9.82527
9.83518
9.84427
9.85261
9.86022
9.86717
9.87348
9.8792
9.88436
9.889
9.89315
9.89685
9.90014
9.90305
9.9056
9.90785
9.9098
9.9115
9.91297
9.91424
9.91532
9.91624
9.91702
9.91768
9.91822
9.91866
9.91902
9.91931
9.91953
9.91968
9.91979
9.91984
8.78111
8.78703
8.79882
8.81638
8.83954
8.86799
8.90136
8.93912
8.98061
9.02511
9.07183
9.11995
9.1687
9.21736
9.2653
9.31196
9.35692
9.39985
9.44051
9.47876
9.51453
9.54783
9.57871
9.60726
9.6336
9.65786
9.68018
9.70071
9.71958
9.73694
9.7529
9.76759
9.78109
9.7935
9.80488
9.81531
9.82485
9.83354
9.84145
9.8486
9.85505
9.86085
9.86604
9.87066
9.87476
9.87838
9.88156
9.88435
9.88678
9.88889
9.89071
9.89228
9.89361
9.89475
9.89571
9.89652
9.89719
9.89773
9.89818
9.89852
9.89879
9.89898
9.89911
9.89917
8.5342
8.54135
8.5556
8.57686
8.60492
8.63948
8.68006
8.72603
8.77658
8.8308
8.88768
8.94622
9.00544
9.06445
9.12247
9.17886
9.23307
9.28474
9.33357
9.37943
9.42224
9.46203
9.49887
9.53289
9.56424
9.59309
9.61962
9.644
9.66642
9.68703
9.70599
9.72343
9.73948
9.75423
9.76777
9.78017
9.79151
9.80185
9.81124
9.81975
9.82741
9.83429
9.84044
9.84591
9.85076
9.85504
9.8588
9.86208
9.86494
9.86743
9.86957
9.8714
9.87297
9.8743
9.87543
9.87637
9.87714
9.87778
9.87829
9.8787
9.87901
9.87923
9.87937
9.87944
8.2943
8.30265
8.31932
8.34421
8.37714
8.41778
8.46559
8.51983
8.57953
8.64357
8.71071
8.77972
8.84942
8.91875
8.98677
9.05272
9.116
9.17615
9.23289
9.28605
9.33558
9.38153
9.42401
9.46318
9.49924
9.53239
9.56284
9.59082
9.61654
9.64018
9.66193
9.68195
9.70037
9.71731
9.73287
9.74713
9.76016
9.77204
9.78283
9.7926
9.80139
9.80928
9.81632
9.82258
9.82812
9.833
9.83728
9.84102
9.84427
9.84708
9.84951
9.85159
9.85336
9.85486
9.85613
9.85718
9.85805
9.85877
9.85934
9.85979
9.86013
9.86038
9.86054
9.86062
8.06086
8.07037
8.08939
8.11784
8.15559
8.2023
8.25739
8.32001
8.38901
8.46302
8.54057
8.62017
8.70041
8.78005
8.858
8.93339
9.00555
9.07397
9.13835
9.19852
9.25445
9.30623
9.35403
9.39803
9.43848
9.47564
9.50975
9.54106
9.56984
9.59629
9.62064
9.64306
9.6637
9.68269
9.70013
9.71612
9.73074
9.74407
9.75617
9.7671
9.77695
9.78577
9.79363
9.80061
9.80678
9.81221
9.81696
9.82111
9.82471
9.82782
9.8305
9.83279
9.83474
9.83639
9.83777
9.83893
9.83988
9.84065
9.84128
9.84176
9.84213
9.8424
9.84257
9.84266
7.83342
7.84405
7.86533
7.89727
7.93977
7.99253
8.05497
8.1261
8.20459
8.28881
8.37697
8.46732
8.55819
8.64816
8.73599
8.82071
8.90158
8.97805
9.0498
9.11668
9.1787
9.236
9.28878
9.3373
9.38185
9.42272
9.46021
9.49461
9.52621
9.55526
9.58201
9.60665
9.62936
9.65026
9.66947
9.68708
9.70319
9.71786
9.73118
9.74321
9.75403
9.76371
9.77233
9.77997
9.78671
9.79263
9.79781
9.80232
9.80623
9.8096
9.81249
9.81497
9.81707
9.81884
9.82033
9.82156
9.82258
9.8234
9.82406
9.82458
9.82497
9.82525
9.82543
9.82552
7.61164
7.62332
7.64677
7.68207
7.72923
7.78803
7.85788
7.9377
8.02593
8.12062
8.21965
8.32093
8.42256
8.52289
8.62057
8.71452
8.80393
8.88823
8.96709
9.04039
9.10818
9.17066
9.2281
9.28083
9.32918
9.37348
9.41408
9.45132
9.48551
9.51696
9.54592
9.57262
9.59725
9.61993
9.64079
9.65992
9.67741
9.69335
9.7078
9.72085
9.73258
9.74305
9.75236
9.7606
9.76785
9.77421
9.77976
9.78459
9.78877
9.79236
9.79545
9.79808
9.8003
9.80218
9.80375
9.80505
9.80611
9.80697
9.80766
9.8082
9.8086
9.80889
9.80908
9.80917
7.39522
7.4079
7.43338
7.4719
7.52359
7.58838
7.66572
7.75444
7.85269
7.95818
8.06837
8.18082
8.29334
8.40409
8.51158
8.61466
8.71245
8.80436
8.89006
8.96947
9.0427
9.11004
9.17183
9.22845
9.2803
9.32776
9.37122
9.41105
9.44761
9.48124
9.51224
9.54085
9.56726
9.59161
9.61401
9.63456
9.65335
9.67046
9.68597
9.69997
9.71252
9.72373
9.73366
9.74244
9.75015
9.7569
9.76278
9.76788
9.77229
9.77608
9.77932
9.78207
9.7844
9.78636
9.78799
9.78934
9.79044
9.79133
9.79204
9.79258
9.79299
9.79329
9.79347
9.79357
7.18399
7.19756
7.22492
7.26646
7.32252
7.39323
7.47812
7.57596
7.68459
7.80125
7.92294
8.04681
8.17037
8.29159
8.40886
8.52094
8.62695
8.72625
8.81853
8.90374
8.98209
9.05395
9.11976
9.17998
9.23505
9.2854
9.33146
9.37365
9.41236
9.44798
9.48085
9.51122
9.53928
9.56518
9.58902
9.6109
9.6309
9.64911
9.66561
9.68048
9.69381
9.70567
9.71618
9.72543
9.73355
9.74063
9.7468
9.75214
9.75674
9.76069
9.76406
9.76692
9.76933
9.77135
9.77303
9.77441
9.77553
9.77644
9.77715
9.7777
9.77811
9.7784
9.77859
9.77868
6.9778
6.99215
7.0212
7.06551
7.12572
7.20222
7.29473
7.40194
7.52136
7.64963
7.7832
7.91876
8.05351
8.18523
8.31222
8.43321
8.54726
8.65374
8.75231
8.843
8.92613
9.00218
9.07171
9.13522
9.19324
9.24622
9.29464
9.33896
9.37961
9.41703
9.4516
9.48359
9.5132
9.54055
9.56574
9.58885
9.60999
9.62922
9.64664
9.66233
9.67636
9.68883
9.69985
9.70952
9.71799
9.72537
9.73177
9.73731
9.74208
9.74615
9.74963
9.75256
9.75503
9.7571
9.75881
9.76021
9.76135
9.76226
9.76297
9.76351
9.76392
9.76421
9.76439
9.76448
6.77657
6.79158
6.82207
6.86885
6.93292
7.01503
7.1152
7.23208
7.36276
7.50314
7.649
7.79654
7.94261
8.08486
8.22152
8.35128
8.4732
8.58663
8.69122
8.78706
8.87461
8.95453
9.02745
9.09398
9.15467
9.21004
9.26059
9.30682
9.34921
9.38825
9.42436
9.45785
9.48889
9.5176
9.54406
9.56834
9.59053
9.61072
9.629
9.64544
9.66012
9.67314
9.68461
9.69465
9.70342
9.71105
9.71765
9.72335
9.72825
9.73243
9.73598
9.73897
9.74148
9.74357
9.7453
9.74671
9.74785
9.74875
9.74945
9.74999
9.75038
9.75066
9.75083
9.75092
6.58025
6.59578
6.62743
6.67632
6.74388
6.83136
6.93919
7.06609
7.20858
7.36165
7.52024
7.68004
7.83756
7.99031
8.13656
8.27496
8.40457
8.52474
8.63507
8.73571
8.82733
8.91077
8.98678
9.05605
9.11917
9.1767
9.22915
9.27707
9.321
9.36147
9.39899
9.43386
9.46625
9.49624
9.52389
9.54926
9.57244
9.59352
9.6126
9.62974
9.64503
9.65855
9.67041
9.68077
9.68979
9.69762
9.70439
9.71022
9.71521
9.71947
9.72307
9.7261
9.72863
9.73073
9.73246
9.73387
9.735
9.73589
9.73658
9.73709
9.73747
9.73773
9.7379
9.73798
6.38885
6.40472
6.43722
6.4878
6.5584
6.65092
6.76638
6.90367
7.05866
7.22503
7.39682
7.56917
7.73823
7.90145
8.05717
8.20405
8.34118
8.46789
8.58366
8.68873
8.78405
8.87068
8.94949
9.02122
9.08655
9.14601
9.20015
9.24957
9.29484
9.33657
9.37535
9.41152
9.44518
9.47637
9.50514
9.53153
9.55564
9.57756
9.59737
9.61517
9.63101
9.64498
9.65718
9.6678
9.67703
9.68502
9.69192
9.69786
9.70293
9.70723
9.71087
9.71391
9.71645
9.71855
9.72027
9.72166
9.72277
9.72364
9.7243
9.7248
9.72515
9.7254
9.72555
9.72562
6.20239
6.21842
6.25143
6.3032
6.37629
6.4734
6.5964
6.74452
6.91282
7.09322
7.27868
7.46387
7.6445
7.81809
7.98317
8.13835
8.28282
8.41589
8.53682
8.64592
8.74454
8.83404
8.91535
8.98931
9.05663
9.11781
9.17345
9.22418
9.27059
9.3134
9.35331
9.39069
9.42556
9.45789
9.48773
9.51508
9.54004
9.56274
9.58325
9.60165
9.61802
9.63238
9.64488
9.65571
9.6651
9.67322
9.68022
9.68622
9.69134
9.69568
9.69932
9.70237
9.70489
9.70698
9.70868
9.71005
9.71114
9.71197
9.71261
9.71307
9.7134
9.71362
9.71376
9.71383
6.02091
6.03692
6.07004
6.12246
6.19739
6.29853
6.4289
6.58834
6.77097
6.96618
7.16576
7.36408
7.55627
7.74006
7.91437
8.07764
8.22926
8.36857
8.49436
8.60706
8.70855
8.80062
8.88416
8.9601
9.02923
9.09195
9.14888
9.20075
9.24812
9.29182
9.33273
9.37128
9.40729
9.44071
9.47157
9.49982
9.52558
9.54901
9.57017
9.58913
9.60599
9.62071
9.63344
9.64443
9.65395
9.66216
9.66922
9.67528
9.68042
9.68476
9.68841
9.69143
9.69393
9.69599
9.69766
9.69901
9.70006
9.70086
9.70146
9.70188
9.70218
9.70238
9.7025
9.70256
5.84448
5.86026
5.8931
5.94556
6.02157
6.12602
6.26345
6.4348
6.63305
6.8439
7.058
7.26976
7.47341
7.66716
7.85057
8.0217
8.18026
8.32576
8.45613
8.57192
8.67585
8.7702
8.85572
8.93341
9.00419
9.06826
9.12631
9.17916
9.22729
9.27168
9.31349
9.35317
9.3903
9.42475
9.45659
9.48568
9.51217
9.5363
9.55805
9.57754
9.59487
9.60992
9.62282
9.63392
9.64352
9.65179
9.65889
9.66497
9.67013
9.67446
9.67808
9.68108
9.68354
9.68555
9.68719
9.6885
9.68951
9.69027
9.69083
9.69121
9.69148
9.69165
9.69175
9.6918
5.67315
5.68851
5.72065
5.7725
5.84874
5.95561
6.09964
6.28352
6.49908
6.72643
6.95535
7.1809
7.39582
7.59915
7.79158
7.97029
8.13557
8.28733
8.42197
8.54028
8.64616
8.74258
8.82981
8.90902
8.98135
9.0466
9.10558
9.15929
9.20799
9.25285
9.29544
9.33628
9.37449
9.40992
9.44272
9.47258
9.49974
9.52453
9.54683
9.56682
9.58462
9.59995
9.61296
9.62411
9.63377
9.64207
9.64918
9.65527
9.66042
9.66472
9.66831
9.67126
9.67367
9.67563
9.67724
9.6785
9.67947
9.68018
9.68069
9.68103
9.68125
9.68139
9.68148
9.68152
5.50699
5.52174
5.55276
5.60332
5.67883
5.78702
5.93697
6.13407
6.36918
6.61386
6.8577
7.09754
7.32336
7.53577
7.73726
7.92315
8.09488
8.25316
8.39179
8.51191
8.6192
8.71755
8.80624
8.88675
8.96058
9.02684
9.08656
9.14105
9.19011
9.23519
9.27844
9.32052
9.35979
9.39614
9.42991
9.46047
9.48822
9.51366
9.53646
9.5569
9.57518
9.59077
9.60382
9.61496
9.62465
9.63295
9.64005
9.64615
9.65126
9.65552
9.65907
9.66196
9.6643
9.66621
9.66777
9.66899
9.66991
9.67057
9.67102
9.67132
9.67149
9.6716
9.67167
9.6717
5.34606
5.36
5.38952
5.4381
5.51183
5.62004
5.77489
5.98591
6.24365
6.50632
6.76487
7.01976
7.25594
7.47668
7.68746
7.88004
8.05782
8.22321
8.36548
8.48654
8.59466
8.69495
8.78484
8.86637
8.94177
9.00884
9.06909
9.12436
9.17357
9.21856
9.26234
9.30584
9.34614
9.38331
9.4181
9.44927
9.47751
9.50362
9.52687
9.54771
9.56654
9.58234
9.59534
9.60641
9.61613
9.6244
9.63146
9.63755
9.64262
9.64682
9.65032
9.65314
9.6554
9.65724
9.65876
9.65994
9.6608
9.6614
9.6618
9.66204
9.66217
9.66224
9.66229
9.66231
5.1904
5.20338
5.231
5.27692
5.34778
5.45447
5.61279
5.83831
6.12297
6.40402
6.67656
6.94774
7.19341
7.42142
7.64214
7.84068
8.02395
8.19749
8.34301
8.46393
8.57219
8.67465
8.76544
8.84765
8.92483
8.9925
9.05301
9.10917
9.15828
9.20281
9.24698
9.29222
9.33348
9.37136
9.40726
9.43894
9.46755
9.49439
9.518
9.53919
9.55866
9.57463
9.58748
9.5984
9.60816
9.61638
9.62336
9.62947
9.63448
9.63859
9.64204
9.64478
9.64694
9.64871
9.65019
9.65132
9.65212
9.65266
9.653
9.65319
9.65326
9.6533
9.65332
9.65334
5.04005
5.05191
5.07729
5.1199
5.18676
5.29017
5.45001
5.69033
6.008
6.30717
6.59227
6.88183
7.13566
7.36943
7.60137
7.80481
7.99269
8.17614
8.32436
8.44376
8.55136
8.6566
8.74787
8.83034
8.90974
8.9777
9.03814
9.09545
9.14419
9.1878
9.23218
9.27964
9.32177
9.36015
9.39738
9.42942
9.45822
9.48594
9.5098
9.53123
9.55153
9.56762
9.58018
9.59089
9.60072
9.60885
9.61573
9.62186
9.62679
9.6308
9.63421
9.63685
9.6389
9.64059
9.64204
9.64312
9.64386
9.64433
9.64461
9.64474
9.64475
9.64475
9.64475
9.64476
4.89501
4.90564
4.92848
4.96719
5.02892
5.12708
5.28584
5.54065
5.9
6.21605
6.5112
6.82258
7.08256
7.3199
7.5654
7.77216
7.96326
8.15945
8.30957
8.42573
8.5317
8.6408
8.73201
8.8141
8.89651
8.96434
9.02425
9.08324
9.13126
9.17335
9.21769
9.26818
9.31097
9.34955
9.38848
9.42066
9.44942
9.47827
9.50221
9.52374
9.54515
9.5613
9.5734
9.58379
9.59379
9.60179
9.60851
9.61472
9.61955
9.62342
9.6268
9.62933
9.63125
9.63285
9.63429
9.63532
9.63599
9.63638
9.63661
9.63668
9.63661
9.63657
9.63656
9.63656
4.7553
4.76459
4.78465
4.81893
4.87446
4.96527
5.11957
5.38741
5.80092
6.13093
6.4321
6.77088
7.03397
7.27175
7.53474
7.74244
7.93463
8.14794
8.29871
8.40947
8.5126
8.62743
8.71772
8.79855
8.88527
8.95234
9.01106
9.07263
9.11948
9.15932
9.20324
9.25797
9.30106
9.33938
9.38063
9.41261
9.44099
9.47141
9.49519
9.51659
9.53957
9.55564
9.56709
9.57704
9.58735
9.59516
9.60165
9.60802
9.61271
9.6164
9.61979
9.62221
9.62397
9.62547
9.62692
9.62789
9.62848
9.6288
9.62897
9.62898
9.62883
9.62875
9.62872
9.62872
4.62087
4.62876
4.64585
4.67528
4.72364
4.80492
4.95053
5.22799
5.71355
6.05208
6.35314
6.72814
6.98974
7.22348
7.51031
7.7154
7.90538
8.14247
8.29187
8.3946
8.49329
8.61681
8.70489
8.78315
8.87627
8.9416
8.9982
9.06378
9.10882
9.14555
9.18847
9.24923
9.29199
9.3294
9.37394
9.40523
9.43275
9.46544
9.48869
9.50962
9.53484
9.55064
9.56118
9.57056
9.58142
9.58894
9.59511
9.60177
9.60626
9.60972
9.61319
9.61545
9.61703
9.61841
9.61991
9.62083
9.62134
9.62156
9.62167
9.62163
9.62138
9.62126
9.62123
9.62122
4.49168
4.49812
4.51212
4.53638
4.57675
4.64639
4.77822
5.05872
5.6419
5.97971
6.27166
6.69644
6.9497
7.17303
7.49356
7.69076
7.87361
8.14432
8.2891
8.3807
8.47283
8.60953
8.69342
8.76723
8.8699
8.93203
8.98517
9.05698
9.09931
9.13188
9.17291
9.24233
9.28376
9.31928
9.36862
9.39847
9.42446
9.46049
9.48265
9.5026
9.53107
9.54629
9.55562
9.56424
9.57602
9.5831
9.58881
9.59597
9.60017
9.60334
9.60697
9.60905
9.61041
9.61166
9.61325
9.6141
9.61453
9.61465
9.61472
9.61463
9.61425
9.6141
9.61406
9.61405
4.36766
4.37264
4.38348
4.40236
4.43411
4.49019
4.60245
4.87447
5.59151
5.91389
6.18391
6.67881
6.91362
7.11759
7.48666
7.66826
7.83673
8.1554
8.29038
8.36737
8.44996
8.60647
8.68319
8.74987
8.86681
8.92354
8.97133
9.05265
9.09093
9.11818
9.15593
9.2378
9.27632
9.30859
9.36496
9.3923
9.41578
9.45679
9.47705
9.49526
9.52845
9.54256
9.55036
9.55796
9.5712
9.57761
9.58268
9.59064
9.59443
9.59719
9.60113
9.60298
9.60409
9.60517
9.60694
9.60771
9.60804
9.60805
9.60807
9.60795
9.60741
9.60725
9.60721
9.60719
4.24873
4.25225
4.25992
4.27333
4.29608
4.33702
4.42357
4.66819
5.57002
5.85449
6.08481
6.67953
6.88121
7.05342
7.49274
7.64764
7.7913
8.17842
8.29553
8.35424
8.42309
8.60893
8.67409
8.72987
8.86793
8.91603
8.95583
9.05142
9.08366
9.10437
9.1367
9.2364
9.26963
9.29673
9.36344
9.38666
9.4063
9.45465
9.47183
9.48723
9.52724
9.53942
9.54535
9.55158
9.56706
9.57246
9.57662
9.58582
9.589
9.59124
9.59569
9.59722
9.59805
9.59893
9.60098
9.60162
9.60185
9.60174
9.60173
9.60159
9.60085
9.60068
9.60065
9.60064
4.13479
4.13687
4.14141
4.14938
4.16295
4.18774
4.24274
4.43031
5.58762
5.80104
5.9675
6.70452
6.85204
6.97554
7.51613
7.62861
7.73281
8.21713
8.30406
8.34107
8.39017
8.61875
8.66596
8.70566
8.87455
8.90937
8.93755
9.05417
9.07743
9.09044
9.11416
9.23916
9.26361
9.28294
9.36466
9.38149
9.39546
9.45453
9.46695
9.47803
9.5278
9.53681
9.54053
9.5449
9.56372
9.56761
9.57051
9.58159
9.58388
9.58541
9.59067
9.59176
9.59227
9.59288
9.59536
9.59582
9.59595
9.59569
9.59567
9.59555
9.59453
9.5944
9.59437
9.59436
4.02571
4.0264
4.02789
4.03052
4.03501
4.04327
4.06232
4.148
5.65782
5.75258
5.82308
6.76174
6.82549
6.87749
7.5627
7.61088
7.65539
8.2766
8.31503
8.32778
8.34854
8.6384
8.65862
8.67521
8.88847
8.90337
8.91508
9.06207
9.07204
9.07652
9.08687
9.2475
9.25814
9.26622
9.3695
9.37671
9.38254
9.45706
9.46235
9.46705
9.53064
9.53461
9.53589
9.5377
9.56136
9.56302
9.56421
9.57804
9.57901
9.57963
9.5861
9.58656
9.58674
9.58699
9.5901
9.5903
9.59033
9.58989
9.58988
9.58981
9.58844
9.58838
9.58837
9.58836
)
;

boundaryField
{
    left
    {
        type            zeroGradient;
    }
    right
    {
        type            zeroGradient;
    }
    interface
    {
        type            fixedValue;
        value           nonuniform List<scalar> 
64
(
3.97237
3.97237
3.97237
3.97237
3.97237
3.97237
3.97237
3.97237
5.72953
5.72953
5.72953
6.81283
6.81283
6.81283
7.6023
7.6023
7.6023
8.32108
8.32108
8.32108
8.32108
8.65512
8.65512
8.65512
8.90052
8.90052
8.90052
9.06956
9.06956
9.06956
9.06956
9.25553
9.25553
9.25553
9.37441
9.37441
9.37441
9.46012
9.46012
9.46012
9.5336
9.5336
9.5336
9.5336
9.5608
9.5608
9.5608
9.57664
9.57664
9.57664
9.58403
9.58403
9.58403
9.58403
9.5876
9.5876
9.5876
9.58705
9.58705
9.58705
9.58543
9.58543
9.58543
9.58543
)
;
    }
    bottom
    {
        type            fixedValue;
        value           uniform 10;
    }
    defaultFaces
    {
        type            empty;
    }
}


// ************************************************************************* //
