/*--------------------------------*- C++ -*----------------------------------*\
| =========                 |                                                 |
| \\      /  F ield         | OpenFOAM: The Open Source CFD Toolbox           |
|  \\    /   O peration     | Version:  5.x                                   |
|   \\  /    A nd           | Web:      www.OpenFOAM.org                      |
|    \\/     M anipulation  |                                                 |
\*---------------------------------------------------------------------------*/
FoamFile
{
    version     2.0;
    format      ascii;
    class       volScalarField;
    location    "9.4";
    object      gradTx;
}
// * * * * * * * * * * * * * * * * * * * * * * * * * * * * * * * * * * * * * //

dimensions      [0 -1 0 1 0 0 0];

internalField   nonuniform List<scalar> 
2048
(
0.0222041
0.0663654
0.109763
0.151821
0.19188
0.229211
0.263055
0.292683
0.31747
0.336968
0.350945
0.359408
0.362587
0.360902
0.354914
0.345274
0.332676
0.317817
0.301362
0.283916
0.266011
0.248091
0.23051
0.213538
0.197366
0.182118
0.167862
0.154619
0.14237
0.131069
0.120651
0.111037
0.102142
0.0938869
0.0861974
0.0790107
0.0722755
0.0659519
0.0600107
0.0544316
0.0492012
0.0443111
0.0397555
0.0355293
0.0316266
0.0280396
0.024758
0.0217695
0.0190597
0.0166126
0.0144114
0.0124386
0.0106766
0.00910752
0.0077139
0.00647842
0.00538406
0.00441411
0.00355204
0.00278141
0.00208572
0.00144837
0.000852558
0.000281466
0.0658454
0.196825
0.325599
0.450476
0.569503
0.680494
0.781148
0.869251
0.942902
1.00073
1.04205
1.06688
1.07593
1.07048
1.05224
1.02317
0.98535
0.940873
0.891724
0.839712
0.786413
0.733142
0.680946
0.630614
0.582702
0.537571
0.495409
0.456271
0.420098
0.386747
0.356014
0.327659
0.301431
0.277087
0.254407
0.233204
0.213325
0.194655
0.177108
0.160626
0.145171
0.130719
0.117256
0.104767
0.093236
0.0826401
0.0729493
0.0641264
0.0561285
0.0489082
0.0424153
0.0365979
0.0314034
0.0267794
0.0226738
0.0190354
0.015814
0.0129602
0.0104253
0.00816072
0.00611783
0.0042474
0.00249945
0.000824901
0.108116
0.323248
0.534943
0.740494
0.936689
1.11986
1.28608
1.43153
1.55295
1.64796
1.7154
1.75534
1.76904
1.75871
1.72726
1.67803
1.61452
1.54022
1.45843
1.37217
1.28403
1.19617
1.11027
1.02762
0.949085
0.875231
0.806345
0.742488
0.683546
0.629263
0.579284
0.533199
0.49058
0.451017
0.414144
0.379652
0.347294
0.316882
0.288281
0.261401
0.236186
0.212602
0.190631
0.170253
0.151445
0.134169
0.118378
0.104008
0.090989
0.0792422
0.0686844
0.0592302
0.0507932
0.0432871
0.0366267
0.0307284
0.0255103
0.0208919
0.0167939
0.0131374
0.00984342
0.00683129
0.00401789
0.00132514
0.149298
0.446518
0.739383
1.0243
1.29683
1.55173
1.78329
1.98586
2.15457
2.28596
2.37831
2.43184
2.44845
2.43145
2.38507
2.31413
2.22363
2.11852
2.00346
1.88265
1.7597
1.63758
1.51859
1.40441
1.29621
1.19469
1.1002
1.01279
0.932251
0.858196
0.790098
0.727355
0.669345
0.615482
0.56525
0.518221
0.474059
0.432512
0.393403
0.356619
0.322093
0.289791
0.259697
0.231792
0.20605
0.182421
0.160837
0.141213
0.123447
0.107429
0.0930429
0.0801706
0.0686923
0.058489
0.0494434
0.0414406
0.0343685
0.0281173
0.0225791
0.0176463
0.0132111
0.00916331
0.00538625
0.00177514
0.18955
0.567152
0.939911
1.30353
1.65236
1.97948
2.27708
2.53735
2.7535
2.92074
3.0368
3.1021
3.11942
3.09334
3.02965
2.93477
2.81534
2.67783
2.52829
2.37215
2.21405
2.05771
1.90599
1.76094
1.62392
1.49573
1.37674
1.26692
1.16598
1.07335
0.988308
0.910027
0.83767
0.770459
0.707724
0.64892
0.593628
0.541545
0.49246
0.446247
0.402838
0.362211
0.324359
0.289275
0.256932
0.22727
0.200203
0.175617
0.153381
0.133352
0.115381
0.0993153
0.0850038
0.0722953
0.0610412
0.0510967
0.042321
0.0345768
0.0277291
0.0216439
0.0161864
0.0112182
0.00658944
0.00217007
0.228908
0.68531
1.13696
1.57909
2.00491
2.4056
2.77088
3.09024
3.35453
3.55735
3.69585
3.77081
3.78614
3.74804
3.66407
3.54248
3.39164
3.21962
3.03398
2.84139
2.6475
2.4568
2.2726
2.09724
1.93219
1.7783
1.63587
1.50481
1.38468
1.27471
1.17394
1.08129
0.995659
0.916073
0.841695
0.771873
0.706116
0.644077
0.585527
0.530336
0.478447
0.429861
0.384595
0.342663
0.30404
0.268661
0.236415
0.207161
0.180733
0.156954
0.135641
0.11661
0.0996768
0.0846583
0.0713759
0.0596559
0.0493304
0.0402363
0.032214
0.0251047
0.0187486
0.0129806
0.00761817
0.00250694
0.267293
0.800815
1.33042
1.85122
2.35534
2.83182
3.26736
3.64807
3.96179
4.20015
4.35967
4.4418
4.45197
4.39836
4.29065
4.13909
3.95392
3.74494
3.52122
3.29079
3.06032
2.83499
2.61851
2.41338
2.22109
2.04244
1.87766
1.72653
1.58843
1.4624
1.34717
1.24134
1.14355
1.05257
0.967402
0.887302
0.81172
0.740283
0.672751
0.609003
0.549007
0.492798
0.440438
0.391967
0.347376
0.306586
0.269464
0.235833
0.20549
0.178222
0.153811
0.132042
0.112697
0.0955642
0.080434
0.0671048
0.0553832
0.0450826
0.036021
0.028017
0.0208878
0.014443
0.00846783
0.00278421
0.304512
0.913162
1.51969
2.11951
2.70381
3.2592
3.76864
4.21391
4.57895
4.85295
5.0319
5.11825
5.11954
5.04641
4.91103
4.72587
4.50314
4.25441
3.99041
3.72055
3.4526
3.19235
2.94381
2.70947
2.49076
2.28832
2.10227
1.93224
1.77745
1.63666
1.50827
1.39051
1.28168
1.18028
1.08516
0.9955
0.910705
0.830395
0.754335
0.682419
0.614652
0.551126
0.49196
0.437244
0.386981
0.341083
0.299384
0.261664
0.22768
0.19718
0.169913
0.145628
0.124081
0.105027
0.0882267
0.0734521
0.0604853
0.049119
0.0391512
0.0303806
0.0226029
0.0156041
0.00913752
0.00300162
0.340268
1.02153
1.70366
2.38293
3.04983
3.68821
4.27638
4.79048
5.20937
5.51926
5.71567
5.80275
5.79081
5.69365
5.52629
5.3036
5.03982
4.74837
4.44166
4.13068
3.82431
3.52892
3.2486
2.98571
2.74143
2.5162
2.30997
2.12223
1.95201
1.79781
1.65762
1.52922
1.41048
1.29963
1.19537
1.09682
1.00338
0.91469
0.830521
0.750792
0.675556
0.604978
0.539266
0.478574
0.422927
0.372219
0.326238
0.284716
0.247362
0.213883
0.183993
0.157413
0.133867
0.11308
0.0947849
0.0787239
0.0646581
0.0523617
0.0416164
0.0322035
0.0238995
0.0164675
0.00962924
0.00315983
0.374165
1.12482
1.88073
2.63983
3.39224
4.11876
4.79188
5.38033
5.85632
6.20231
6.41376
6.49735
6.46719
6.34099
6.13701
5.87268
5.56424
5.22689
4.8749
4.52102
4.17533
3.84467
3.53301
3.24235
2.97344
2.72643
2.5011
2.29682
2.11247
1.94624
1.79568
1.65796
1.53045
1.41109
1.29845
1.19164
1.09009
0.993474
0.901583
0.814362
0.731916
0.65451
0.582477
0.516059
0.455308
0.400084
0.350118
0.305078
0.264619
0.228406
0.196122
0.167458
0.142111
0.119777
0.100154
0.0829602
0.0679341
0.0548366
0.0434363
0.0335003
0.0247878
0.0170402
0.00994718
0.00326031
0.405722
1.22164
2.04887
2.88797
3.72927
4.55023
5.31614
5.98599
6.52304
6.90525
7.12862
7.20364
7.14952
6.98878
6.74335
6.43319
6.07641
5.6899
5.28989
4.89125
4.50544
4.13958
3.79723
3.47971
3.1872
2.91946
2.67609
2.45641
2.2592
2.0824
1.92295
1.7773
1.64217
1.5152
1.39488
1.28036
1.17119
1.06707
0.967815
0.87339
0.783951
0.699894
0.621725
0.549814
0.484234
0.42479
0.371135
0.322859
0.279554
0.240845
0.206385
0.17584
0.148884
0.12518
0.104393
0.086211
0.0703553
0.0565769
0.0446364
0.0342901
0.0252821
0.017332
0.0100973
0.00330513
0.434385
1.3104
2.20565
3.12452
4.05842
4.98144
5.84997
6.61006
7.21298
7.63116
7.86238
7.92271
7.83806
7.63688
7.34506
6.98495
6.57624
6.13722
5.68628
5.24095
4.81436
4.41365
4.04149
3.69824
3.38325
3.09581
2.83542
2.60143
2.39262
2.20673
2.04
1.88785
1.74625
1.61251
1.48513
1.3634
1.24703
1.1358
1.02952
0.928153
0.831895
0.741305
0.657145
0.579957
0.509822
0.446461
0.389418
0.338185
0.292286
0.251307
0.214877
0.182645
0.154262
0.129363
0.107568
0.0885347
0.0719696
0.0576208
0.0452463
0.0345951
0.0253987
0.0173545
0.0100868
0.00329688
0.459557
1.38933
2.34827
3.34608
4.37655
5.41064
6.39399
7.25545
7.92988
8.38314
8.61689
8.65518
8.53252
8.28466
7.94158
7.52761
7.06359
6.56866
6.0636
5.56957
5.10178
4.6669
4.26612
3.89847
3.5622
3.25608
2.97962
2.73231
2.51312
2.3197
2.14743
1.99031
1.84334
1.70361
1.56969
1.44115
1.31798
1.2
1.08702
0.978946
0.875994
0.778921
0.688863
0.606604
0.532202
0.465235
0.405109
0.351195
0.302943
0.259908
0.221703
0.187964
0.158331
0.132404
0.109753
0.0899951
0.0728295
0.0580097
0.0452979
0.0344394
0.0251557
0.017121
0.00992421
0.00323856
0.480615
1.45657
2.47366
3.54871
4.67974
5.83543
6.94868
7.9255
8.67798
9.16431
9.39368
9.40113
9.23202
8.93105
8.53206
8.06069
7.53836
6.9841
6.42131
5.87639
5.36732
4.89944
4.47157
4.08106
3.7248
3.40094
3.10928
2.84952
2.62106
2.42175
2.24587
2.08543
1.93415
1.78907
1.64903
1.51399
1.38435
1.25999
1.14061
1.02607
0.916507
0.812913
0.716994
0.629867
0.551504
0.481257
0.41836
0.362039
0.311661
0.266771
0.22697
0.191892
0.161178
0.134389
0.111026
0.0906604
0.0729899
0.0577867
0.0448243
0.033848
0.0245722
0.0166457
0.00961871
0.00313358
0.496952
1.51021
2.57858
3.728
4.96329
6.25262
7.51439
8.62427
9.46218
9.97776
10.1939
10.1601
9.93503
9.57451
9.11543
8.58363
8.00064
7.38357
6.75874
6.16052
5.61059
5.11147
4.65837
4.24682
3.8719
3.53116
3.22501
2.95352
2.71674
2.51327
2.33603
2.17401
2.01939
1.8695
1.72361
1.58226
1.44646
1.31607
1.19061
1.06986
0.953706
0.843438
0.741625
0.64985
0.567868
0.494682
0.429335
0.370876
0.318583
0.27202
0.230789
0.194523
0.162887
0.135403
0.111471
0.0906013
0.0725069
0.0569952
0.043859
0.0328456
0.0236672
0.0159437
0.00918059
0.00298576
0.508006
1.54847
2.65975
3.87915
5.22165
6.65808
8.09129
9.35679
10.2883
10.8265
11.0182
10.9311
10.6393
10.2131
9.69048
9.09581
8.45075
7.76741
7.07513
6.42081
5.83121
5.30334
4.82717
4.39667
4.0045
3.64749
3.32749
3.04476
2.80037
2.59459
2.41864
2.25698
2.09978
1.94547
1.79387
1.64623
1.50458
1.36854
1.23731
1.11065
0.987892
0.870632
0.762809
0.666648
0.58144
0.50567
0.438205
0.377871
0.32385
0.275783
0.233269
0.195947
0.163542
0.135534
0.111174
0.0898903
0.0714356
0.0556777
0.0424347
0.0314565
0.0224594
0.0150307
0.00862113
0.00279933
0.513301
1.56975
2.71398
3.99707
5.44841
7.0465
8.67921
10.1295
11.1634
11.7129
11.8668
11.7127
11.3419
10.8447
10.256
9.59649
8.88945
8.13641
7.36948
6.65571
6.02883
5.47564
4.97872
4.53168
4.12369
3.75074
3.41744
3.12372
2.87199
2.66592
2.49454
2.33535
2.17604
2.01753
1.86019
1.7061
1.55895
1.41768
1.28098
1.14882
1.0194
0.894601
0.780549
0.680347
0.592382
0.514386
0.445149
0.3832
0.327602
0.278184
0.234521
0.196247
0.16322
0.134873
0.110227
0.0886003
0.0698296
0.0538751
0.0405835
0.0297034
0.0209665
0.0139231
0.00795285
0.00257901
0.512479
1.57272
2.73839
4.07656
5.63622
7.4111
9.2775
10.9508
12.0959
12.6389
12.7391
12.503
12.0386
11.4668
10.8107
10.0847
9.31807
8.492
7.64044
6.86317
6.20325
5.62928
5.11378
4.65306
4.23075
3.84163
3.49562
3.19092
2.93145
2.72726
2.56472
2.41033
2.24881
2.0862
1.92298
1.76199
1.60978
1.46376
1.32185
1.18478
1.04861
0.915401
0.794779
0.691031
0.600877
0.520993
0.450351
0.387043
0.329972
0.279346
0.234654
0.1955
0.16199
0.133511
0.108726
0.0868036
0.0677382
0.0516261
0.0383366
0.0276074
0.0192047
0.0126383
0.00718981
0.00233011
0.505333
1.55649
2.73054
4.11253
5.7769
7.74321
9.88453
11.8316
13.0965
13.6045
13.634
13.3001
12.7244
12.0769
11.3538
10.5589
9.73869
8.83666
7.88612
7.04033
6.35449
5.76563
5.23303
4.76218
4.32712
3.92075
3.56292
3.24701
2.97832
2.77838
2.63037
2.48331
2.3186
2.15199
1.98262
1.81386
1.65727
1.50709
1.36006
1.21901
1.07602
0.933018
0.805339
0.698792
0.607148
0.525643
0.454003
0.389594
0.331074
0.279386
0.233784
0.193767
0.159907
0.131542
0.106776
0.0845702
0.0652056
0.0489662
0.0357247
0.0251873
0.0171881
0.0111947
0.006348
0.00205861
0.49183
1.52064
2.68864
4.10024
5.86149
8.03187
10.4971
12.7868
14.1786
14.607
14.55
14.1022
13.392
12.6728
11.885
11.0165
10.1545
9.17427
8.10373
7.18329
6.48308
5.88671
5.33686
4.86062
4.41453
3.98839
3.62034
3.29283
3.01178
2.81869
2.69298
2.55602
2.38566
2.21535
2.03956
1.86144
1.70163
1.54802
1.39562
1.25206
1.10224
0.947333
0.811949
0.703753
0.611471
0.528463
0.456303
0.391064
0.331002
0.278422
0.232031
0.191093
0.157009
0.129065
0.104489
0.0819663
0.0622683
0.0459283
0.032779
0.0224589
0.0149276
0.00961234
0.00544573
0.00177124
0.47212
1.4653
2.61174
4.03562
5.88051
8.26331
11.1095
13.8359
15.3589
15.639
15.4849
14.909
14.0317
13.2531
12.4052
11.4531
10.5699
9.51078
8.28912
7.28671
6.59034
5.99547
5.42501
4.9502
4.49511
4.04428
3.66913
3.32963
3.03047
2.84705
2.75456
2.6306
2.44978
2.27678
2.09437
1.90417
1.74311
1.58697
1.42829
1.28462
1.12809
0.958072
0.814162
0.706095
0.614206
0.529524
0.457457
0.391691
0.329804
0.276568
0.229532
0.187502
0.153312
0.126189
0.101994
0.0790505
0.0589527
0.0425425
0.0295328
0.0194345
0.0124299
0.00791367
0.00450409
0.00147555
0.446537
1.39118
2.49985
3.91562
5.82432
8.42056
11.7116
15.0055
16.6595
16.6859
16.4373
15.7222
14.6298
13.8176
12.917
11.8612
10.9915
9.85505
8.4361
7.34329
6.67888
6.09609
5.49609
5.03313
4.57157
4.08727
3.71085
3.35925
3.03234
2.8616
2.8178
2.70978
2.51002
2.33682
2.14785
1.94101
1.78211
1.62457
1.45745
1.31754
1.15467
0.964735
0.811327
0.7061
0.615827
0.528799
0.457693
0.391757
0.327464
0.27394
0.226453
0.182986
0.148803
0.123035
0.0994358
0.0758703
0.0552731
0.0388366
0.0260237
0.0161215
0.00969617
0.00612456
0.00354728
0.00117981
0.415587
1.29956
2.354
3.73854
5.68365
8.48309
12.2871
16.3314
18.1091
17.7218
17.4069
16.5475
15.1663
14.3686
13.426
12.2279
11.4284
10.22
8.5354
7.34323
6.75323
6.19449
5.54674
5.11225
4.64757
4.11474
3.74761
3.38444
3.01439
2.85947
2.88639
2.79711
2.56427
2.39623
2.20127
1.97018
1.81923
1.66174
1.48191
1.35192
1.18352
0.966491
0.802528
0.704217
0.61697
0.526096
0.457268
0.391617
0.323867
0.270667
0.223004
0.177494
0.143429
0.119747
0.0969872
0.0724553
0.0512292
0.0348368
0.0222972
0.0125214
0.00671989
0.00427613
0.00260277
0.000892897
0.379923
1.19222
2.17637
3.5044
5.45034
8.42674
12.8096
17.8613
19.7455
18.7041
18.3972
17.3971
15.6119
14.9122
13.9423
12.5324
11.8934
10.624
8.57343
7.27354
6.82071
6.29887
5.57051
5.19141
4.72813
4.12184
3.7823
3.40934
2.97234
2.8364
2.96542
2.89721
2.60865
2.45616
2.25652
1.98882
1.85548
1.69988
1.49953
1.38924
1.21673
0.962036
0.786528
0.701141
0.618484
0.520967
0.456496
0.391729
0.318748
0.2669
0.219459
0.17092
0.137093
0.116497
0.094852
0.0688087
0.046804
0.0305689
0.0184107
0.00862702
0.00348444
0.00240713
0.00170129
0.000623961
0.340311
1.07139
1.97014
3.21518
5.11827
8.22416
13.2385
19.6593
21.6197
19.5657
19.4174
18.2925
15.9233
15.4607
14.4826
12.7421
12.4048
11.093
8.53042
7.11735
6.89254
6.42053
5.55631
5.276
4.82028
4.10044
3.81901
3.43991
2.9003
2.78633
3.06186
3.01624
2.63671
2.51846
2.31655
1.99243
1.89251
1.74107
1.50687
1.43152
1.25719
0.949406
0.761703
0.697914
0.621504
0.512571
0.455794
0.392707
0.31162
0.262835
0.216187
0.163079
0.129637
0.113501
0.0932765
0.064896
0.0419627
0.0260596
0.0144393
0.00442027
-3.99846e-05
0.000567417
0.000876293
0.000381967
0.297587
0.939632
1.73944
2.87499
4.68443
7.84592
13.5126
21.8099
23.8001
20.2054
20.4875
19.269
16.0367
16.0349
15.0729
12.807
12.988
11.6624
8.37816
6.8531
6.98514
6.57479
5.48628
5.37386
4.93394
4.03758
3.86356
3.48467
2.79027
2.70079
3.18512
3.16235
2.63827
2.58612
2.38578
1.97422
1.9329
1.78847
1.49853
1.48152
1.30878
0.92572
0.725988
0.696052
0.627538
0.499504
0.455735
0.395385
0.301683
0.258744
0.213685
0.153681
0.120837
0.111033
0.0925595
0.0606291
0.036654
0.0213363
0.0104825
-0.000132118
-0.00390024
-0.00117732
0.000162938
0.000175124
0.25262
0.799681
1.48915
2.4901
4.15002
7.26274
13.5422
24.424
26.3789
20.4743
21.6434
20.3809
15.8595
16.669
15.7527
12.6527
13.679
12.38
8.07702
6.45389
7.12163
6.78226
5.33301
5.4964
5.08298
3.91361
3.92428
3.55537
2.63156
2.56826
3.34783
3.34638
2.59805
2.66394
2.47066
1.92406
1.98065
1.84667
1.46642
1.54311
1.37671
0.886862
0.676826
0.697686
0.638572
0.47956
0.457149
0.400896
0.287694
0.255023
0.212616
0.142292
0.110387
0.109441
0.0930642
0.0558465
0.0308125
0.016428
0.00667337
-0.00508337
-0.00816479
-0.0027393
-0.000403714
1.02558e-05
0.206267
0.654334
1.22461
2.06877
3.52152
6.44904
13.1984
27.6456
29.4804
20.1596
22.9454
21.7076
15.2591
17.4149
16.5793
12.1715
14.5277
13.3091
7.57239
5.88693
7.33358
7.07039
5.05606
5.66021
5.28663
3.69965
4.01302
3.66784
2.41022
2.37338
3.56658
3.58276
2.49376
2.7593
2.58039
1.82733
2.04172
1.92223
1.39878
1.62166
1.46783
0.827081
0.611151
0.705718
0.6572
0.449446
0.461242
0.410773
0.267806
0.252256
0.213852
0.128296
0.0978941
0.109168
0.0952321
0.0502885
0.024366
0.0113629
0.00318848
-0.0105129
-0.0129291
-0.0040006
-0.000791466
-0.000107713
0.159336
0.506307
0.951382
1.62087
2.81146
5.38838
12.3004
31.6587
33.271
18.9635
24.4879
23.3615
14.0488
18.3493
17.6339
11.2113
15.6036
14.5316
6.79031
5.11321
7.66268
7.47539
4.59763
5.88915
5.57108
3.35455
4.14658
3.84285
2.10831
2.09609
3.86277
3.89051
2.29389
2.88336
2.72776
1.66331
2.12481
2.02436
1.27891
1.72463
1.59095
0.738506
0.525394
0.723981
0.686785
0.404415
0.469763
0.427056
0.239365
0.251302
0.218521
0.110832
0.0828678
0.110771
0.0995973
0.0435671
0.0172467
0.00616479
0.000260484
-0.0165336
-0.0183217
-0.00480299
-0.000974934
-0.000175995
0.112564
0.358119
0.67493
1.15734
2.03874
4.08102
10.6004
36.6961
37.9721
16.4791
26.4126
25.4965
11.9711
19.5819
19.0282
9.56196
17.0019
16.1516
5.63245
4.08757
8.1624
8.04457
3.87739
6.21689
5.97144
2.82115
4.34838
4.10694
1.70316
1.71066
4.26358
4.29461
1.95495
3.05236
2.93014
1.40329
2.24226
2.16562
1.08375
1.86228
1.75729
0.610578
0.415556
0.757388
0.73165
0.337842
0.48522
0.452427
0.198669
0.253416
0.228049
0.0887408
0.0647226
0.114947
0.106803
0.0351294
0.00940892
0.0008459
-0.00180729
-0.0233013
-0.0245109
-0.00493564
-0.000940887
-0.00019364
0.0665855
0.212007
0.400328
0.689421
1.22803
2.55406
7.76435
43.0476
43.8752
12.1604
28.9238
28.3177
8.67762
21.2654
20.9125
6.93953
18.8515
18.2985
3.97041
2.75936
8.89948
8.83919
2.78638
6.6901
6.53387
2.0219
4.6507
4.49316
1.16665
1.18471
4.80277
4.8276
1.41835
3.28937
3.21051
1.00838
2.41117
2.36285
0.782099
2.04852
1.98075
0.4294
0.277331
0.812059
0.797304
0.240713
0.511142
0.490346
0.140671
0.260392
0.244202
0.0604836
0.0427807
0.122549
0.117619
0.0242163
0.000853178
-0.00460469
-0.00262398
-0.0310242
-0.0317121
-0.00412049
-0.000695196
-0.000160407
0.0219327
0.0698604
0.132036
0.227857
0.408267
0.874279
3.35224
51.0693
51.3599
5.28987
32.3072
32.0916
3.70617
23.6069
23.4845
2.96842
21.325
21.1302
1.63951
1.07366
9.95484
9.93785
1.1802
7.37215
7.31795
0.8539
5.09731
5.04164
0.464531
0.478249
5.52152
5.53142
0.606695
3.62626
3.59864
0.426921
2.65474
2.63809
0.332665
2.30205
2.27829
0.177026
0.106319
0.895402
0.890711
0.101062
0.552393
0.545193
0.0586591
0.274746
0.269114
0.0240696
0.0162858
0.134607
0.132959
0.00981469
-0.00834144
-0.0102375
-0.00169188
-0.039975
-0.0401957
-0.0019955
-0.000271523
-7.45292e-05
)
;

boundaryField
{
    left
    {
        type            calculated;
        value           uniform 0;
    }
    right
    {
        type            calculated;
        value           uniform 0;
    }
    interface
    {
        type            calculated;
        value           nonuniform List<scalar> 
64
(
0.0219327
0.0698604
0.132036
0.227857
0.408267
0.874279
3.35224
51.0693
51.3599
5.28987
32.3072
32.0916
3.70617
23.6069
23.4845
2.96842
21.325
21.1302
1.63951
1.07366
9.95484
9.93785
1.1802
7.37215
7.31795
0.8539
5.09731
5.04164
0.464531
0.478249
5.52152
5.53142
0.606695
3.62626
3.59864
0.426921
2.65474
2.63809
0.332665
2.30205
2.27829
0.177026
0.106319
0.895402
0.890711
0.101062
0.552393
0.545193
0.0586591
0.274746
0.269114
0.0240696
0.0162858
0.134607
0.132959
0.00981469
-0.00834144
-0.0102375
-0.00169188
-0.039975
-0.0401957
-0.0019955
-0.000271523
-7.45292e-05
)
;
    }
    bottom
    {
        type            calculated;
        value           nonuniform List<scalar> 
64
(
0.0222041
0.0663654
0.109763
0.151821
0.19188
0.229211
0.263055
0.292683
0.31747
0.336968
0.350945
0.359408
0.362587
0.360902
0.354914
0.345274
0.332676
0.317817
0.301362
0.283916
0.266011
0.248091
0.23051
0.213538
0.197366
0.182118
0.167862
0.154619
0.14237
0.131069
0.120651
0.111037
0.102142
0.0938869
0.0861974
0.0790107
0.0722755
0.0659519
0.0600107
0.0544316
0.0492012
0.0443111
0.0397555
0.0355293
0.0316266
0.0280396
0.024758
0.0217695
0.0190597
0.0166126
0.0144114
0.0124386
0.0106766
0.00910752
0.0077139
0.00647842
0.00538406
0.00441411
0.00355204
0.00278141
0.00208572
0.00144837
0.000852558
0.000281466
)
;
    }
    defaultFaces
    {
        type            empty;
    }
}


// ************************************************************************* //
