/*--------------------------------*- C++ -*----------------------------------*\
| =========                 |                                                 |
| \\      /  F ield         | OpenFOAM: The Open Source CFD Toolbox           |
|  \\    /   O peration     | Version:  5.x                                   |
|   \\  /    A nd           | Web:      www.OpenFOAM.org                      |
|    \\/     M anipulation  |                                                 |
\*---------------------------------------------------------------------------*/
FoamFile
{
    version     2.0;
    format      ascii;
    class       volScalarField;
    location    "5.9";
    object      T;
}
// * * * * * * * * * * * * * * * * * * * * * * * * * * * * * * * * * * * * * //

dimensions      [0 0 0 1 0 0 0];

internalField   nonuniform List<scalar> 
2048
(
9.85466
9.85535
9.85671
9.85874
9.86141
9.86468
9.8685
9.87282
9.87756
9.88264
9.88797
9.89348
9.89907
9.90466
9.91019
9.9156
9.92082
9.92582
9.93057
9.93506
9.93926
9.94317
9.94681
9.95017
9.95327
9.95612
9.95873
9.96112
9.96332
9.96532
9.96715
9.96883
9.97036
9.97175
9.97303
9.97418
9.97523
9.97619
9.97705
9.97783
9.97853
9.97916
9.97973
9.98023
9.98068
9.98109
9.98144
9.98176
9.98205
9.9823
9.98252
9.98272
9.9829
9.98306
9.9832
9.98332
9.98342
9.98351
9.98359
9.98366
9.98371
9.98374
9.98377
9.98378
9.56976
9.5718
9.57586
9.58188
9.5898
9.59951
9.61086
9.62367
9.63774
9.65283
9.66867
9.68502
9.70161
9.71822
9.73462
9.75063
9.7661
9.78092
9.79498
9.80824
9.82067
9.83224
9.84298
9.85291
9.86205
9.87046
9.87817
9.88524
9.89171
9.89762
9.90303
9.90797
9.91248
9.9166
9.92035
9.92376
9.92686
9.92968
9.93222
9.93452
9.93659
9.93845
9.94011
9.9416
9.94293
9.94412
9.94518
9.94612
9.94695
9.9477
9.94836
9.94894
9.94947
9.94993
9.95034
9.95069
9.95101
9.95128
9.9515
9.95169
9.95184
9.95195
9.95203
9.95207
9.29579
9.29913
9.30579
9.31569
9.32872
9.34469
9.36337
9.38448
9.40765
9.43249
9.45859
9.48549
9.51279
9.54008
9.56701
9.59329
9.61866
9.64292
9.66593
9.68761
9.7079
9.7268
9.74431
9.76049
9.77539
9.78907
9.80163
9.81313
9.82365
9.83327
9.84207
9.8501
9.85744
9.86414
9.87024
9.87579
9.88083
9.8854
9.88954
9.89328
9.89664
9.89966
9.90237
9.90479
9.90695
9.90887
9.91059
9.91211
9.91347
9.91467
9.91574
9.91669
9.91754
9.91829
9.91895
9.91953
9.92004
9.92048
9.92085
9.92116
9.9214
9.92159
9.92171
9.92177
9.03148
9.0361
9.0453
9.05899
9.07701
9.09913
9.12503
9.15431
9.18646
9.22094
9.25713
9.29442
9.33222
9.36998
9.4072
9.44346
9.47842
9.51181
9.54345
9.57321
9.60104
9.62692
9.65088
9.673
9.69335
9.71203
9.72916
9.74485
9.75919
9.77231
9.7843
9.79525
9.80525
9.81438
9.82269
9.83026
9.83714
9.84337
9.84901
9.8541
9.85868
9.86279
9.86647
9.86976
9.8727
9.87531
9.87764
9.87971
9.88155
9.88319
9.88464
9.88593
9.88708
9.8881
9.889
9.88979
9.89048
9.89108
9.89158
9.892
9.89234
9.89259
9.89275
9.89284
8.7758
8.78167
8.79336
8.81077
8.83372
8.86193
8.89499
8.93239
8.97349
9.01755
9.06378
9.11138
9.15958
9.20766
9.25498
9.30101
9.34531
9.38756
9.42752
9.46504
9.50008
9.53262
9.56271
9.59045
9.61595
9.63935
9.66078
9.6804
9.69833
9.71473
9.72971
9.7434
9.7559
9.76731
9.77771
9.78717
9.79576
9.80356
9.8106
9.81696
9.82267
9.8278
9.8324
9.8365
9.84015
9.84341
9.8463
9.84887
9.85116
9.85319
9.855
9.85661
9.85803
9.8593
9.86042
9.86141
9.86227
9.86302
9.86366
9.86418
9.8646
9.86491
9.86512
9.86523
8.52791
8.535
8.54914
8.57021
8.59803
8.63228
8.6725
8.71804
8.76811
8.82179
8.8781
8.93601
8.99456
9.05287
9.11016
9.16578
9.21921
9.27006
9.31806
9.36305
9.40498
9.44385
9.47976
9.51281
9.54316
9.57099
9.59645
9.61974
9.64103
9.66048
9.67826
9.69451
9.70935
9.72289
9.73523
9.74646
9.75667
9.76592
9.77428
9.78181
9.78859
9.79466
9.8001
9.80495
9.80927
9.81311
9.81652
9.81956
9.82225
9.82465
9.82678
9.82867
9.83035
9.83185
9.83318
9.83435
9.83537
9.83626
9.83702
9.83764
9.83814
9.83851
9.83876
9.83889
8.28712
8.2954
8.31192
8.3366
8.36925
8.40953
8.45692
8.51066
8.56981
8.63322
8.69968
8.76797
8.83689
8.9054
8.97257
9.03763
9.09999
9.15921
9.21498
9.26714
9.31565
9.36055
9.40194
9.44
9.4749
9.50686
9.53608
9.56279
9.5872
9.6095
9.62988
9.6485
9.66552
9.68104
9.6952
9.70809
9.71979
9.73039
9.73998
9.74861
9.75637
9.76332
9.76952
9.77506
9.77998
9.78436
9.78825
9.7917
9.79477
9.79749
9.79991
9.80207
9.80399
9.8057
9.80721
9.80855
9.80972
9.81074
9.81161
9.81233
9.81291
9.81334
9.81363
9.81377
8.05285
8.06229
8.08114
8.10936
8.14678
8.19309
8.2477
8.30975
8.37811
8.45142
8.5282
8.60696
8.68632
8.76503
8.84201
8.91639
8.98751
9.05487
9.11816
9.1772
9.23198
9.28258
9.32915
9.3719
9.41105
9.44686
9.47957
9.50946
9.53675
9.56168
9.58446
9.60529
9.62432
9.6417
9.65754
9.67196
9.68506
9.69692
9.70764
9.71729
9.72595
9.7337
9.74062
9.74678
9.75225
9.75711
9.76143
9.76526
9.76866
9.77167
9.77436
9.77675
9.77888
9.78078
9.78247
9.78396
9.78528
9.78642
9.78739
9.7882
9.78885
9.78934
9.78966
9.78982
7.82466
7.8352
7.85631
7.88798
7.93012
7.98243
8.04433
8.11484
8.19261
8.27603
8.36333
8.45274
8.54263
8.63155
8.7183
8.80191
8.88162
8.95691
9.02744
9.09308
9.15382
9.20981
9.26123
9.30836
9.35147
9.39085
9.42679
9.4596
9.48955
9.5169
9.5419
9.56476
9.58566
9.60475
9.62216
9.63801
9.6524
9.66543
9.67719
9.68777
9.69727
9.70575
9.71331
9.72004
9.72601
9.7313
9.736
9.74016
9.74386
9.74714
9.75006
9.75266
9.75498
9.75705
9.7589
9.76053
9.76198
9.76323
9.76431
9.7652
9.76592
9.76646
9.76682
9.767
7.60219
7.61378
7.63704
7.67205
7.71881
7.77712
7.84638
7.92551
8.01294
8.10675
8.20482
8.30507
8.40561
8.5048
8.60128
8.694
8.78214
8.86515
8.94268
9.01461
9.08101
9.14206
9.19803
9.24924
9.29601
9.33868
9.3776
9.41308
9.44546
9.47504
9.50207
9.52681
9.54943
9.57011
9.58897
9.60613
9.62172
9.63583
9.64855
9.66
9.67025
9.6794
9.68755
9.69478
9.70119
9.70687
9.7119
9.71636
9.72031
9.72382
9.72695
9.72974
9.73223
9.73445
9.73644
9.73821
9.73977
9.74114
9.74231
9.74328
9.74407
9.74466
9.74505
9.74524
7.38516
7.39773
7.42301
7.46121
7.51249
7.57674
7.65343
7.74139
7.83878
7.9433
8.05243
8.16376
8.27509
8.38459
8.49078
8.59251
8.68892
8.77943
8.86369
8.94163
9.01336
9.07916
9.13935
9.19434
9.24449
9.29019
9.33182
9.36975
9.40435
9.43594
9.46484
9.49129
9.51551
9.53765
9.55785
9.57624
9.59293
9.60803
9.62165
9.63388
9.64482
9.65458
9.66325
9.67093
9.67773
9.68375
9.68907
9.69378
9.69796
9.70167
9.70498
9.70793
9.71057
9.71294
9.71505
9.71695
9.71862
9.72009
9.72135
9.7224
9.72325
9.72388
9.72431
9.72452
7.17337
7.18683
7.21397
7.25518
7.31079
7.38092
7.46512
7.56213
7.66982
7.78543
7.90598
8.02862
8.15089
8.27075
8.38662
8.49726
8.60178
8.69957
8.79031
8.87394
8.95068
9.0209
9.08501
9.14348
9.19673
9.2452
9.2893
9.32945
9.36605
9.39947
9.43006
9.45809
9.48377
9.50727
9.52871
9.54823
9.56594
9.58196
9.59639
9.60934
9.62092
9.63121
9.64035
9.64843
9.65557
9.66187
9.66745
9.67238
9.67675
9.68064
9.6841
9.68719
9.68996
9.69245
9.69468
9.69669
9.69847
9.70003
9.70137
9.7025
9.70341
9.70409
9.70455
9.70478
6.96667
6.98092
7.00973
7.05369
7.11343
7.18932
7.28108
7.3874
7.5058
7.63294
7.76528
7.89952
8.03287
8.16314
8.28863
8.40806
8.52053
8.62539
8.72232
8.81134
8.89276
8.96707
9.0348
9.09645
9.15254
9.20352
9.24986
9.29201
9.33041
9.36548
9.3976
9.42707
9.4541
9.47885
9.50145
9.52201
9.54066
9.55752
9.5727
9.58631
9.59845
9.60924
9.61878
9.6272
9.63463
9.64119
9.64698
9.65209
9.65663
9.66065
9.66424
9.66745
9.67034
9.67293
9.67528
9.67739
9.67926
9.68092
9.68235
9.68355
9.68451
9.68524
9.68573
9.68597
6.765
6.77989
6.81014
6.85657
6.92013
7.0016
7.10097
7.21691
7.34649
7.48566
7.63019
7.77631
7.92089
8.06158
8.19663
8.32474
8.44498
8.5567
8.65956
8.75363
8.83939
8.91747
8.98849
9.05306
9.11173
9.16499
9.21334
9.25727
9.29727
9.33381
9.36731
9.39811
9.42638
9.45229
9.47595
9.49748
9.517
9.53463
9.55049
9.5647
9.57736
9.58857
9.59847
9.60719
9.61487
9.62163
9.62759
9.63286
9.63753
9.64167
9.64537
9.64868
9.65166
9.65435
9.65679
9.659
9.66097
9.66271
9.66422
9.66549
9.66652
9.66729
9.66781
9.66806
6.56829
6.58369
6.6151
6.66362
6.73066
6.81747
6.92445
7.05034
7.19167
7.34343
7.5006
7.65889
7.81482
7.96592
8.11046
8.24711
8.37494
8.4933
8.60181
8.7006
8.79034
8.87186
8.94589
9.0131
9.0741
9.12941
9.17956
9.22507
9.26648
9.30431
9.33906
9.37106
9.40049
9.42748
9.45213
9.47455
9.49486
9.5132
9.52969
9.54444
9.55756
9.56916
9.57936
9.58833
9.5962
9.60313
9.60924
9.61463
9.6194
9.62364
9.62742
9.63081
9.63387
9.63665
9.63918
9.64148
9.64354
9.64536
9.64695
9.64829
9.64937
9.65019
9.65073
9.65101
6.37654
6.39229
6.42454
6.47474
6.5448
6.63662
6.75119
6.8874
7.04115
7.20614
7.37642
7.54716
7.71453
7.876
8.02992
8.17495
8.3102
8.43502
8.54888
8.65203
8.74539
8.83002
8.90676
8.97636
9.03947
9.09662
9.14835
9.19525
9.23788
9.27683
9.31269
9.3458
9.37631
9.4043
9.42988
9.45312
9.47417
9.49315
9.51021
9.52545
9.539
9.55093
9.56139
9.57055
9.57858
9.58564
9.59186
9.59735
9.6022
9.60651
9.61036
9.61381
9.61693
9.61979
9.6224
9.62478
9.62693
9.62884
9.6305
9.63191
9.63304
9.6339
9.63448
9.63476
6.18977
6.20569
6.23844
6.28983
6.36236
6.45875
6.58082
6.72781
6.89478
7.07371
7.25756
7.44105
7.6199
7.79165
7.95483
8.10807
8.25056
8.38165
8.50059
8.6077
8.70429
8.79172
8.87089
8.94263
9.00764
9.06643
9.11956
9.16767
9.21133
9.25123
9.28807
9.32221
9.35373
9.38267
9.40911
9.43311
9.45482
9.4744
9.49197
9.50767
9.52159
9.53382
9.54448
9.55379
9.56195
9.56911
9.5754
9.58096
9.58587
9.59023
9.59412
9.59762
9.6008
9.60372
9.6064
9.60887
9.6111
9.61309
9.61482
9.6163
9.61749
9.6184
9.619
9.61929
6.00802
6.02392
6.05679
6.10882
6.18319
6.28359
6.41299
6.57123
6.75246
6.9461
7.14398
7.3405
7.53082
7.71267
7.88499
8.04623
8.19578
8.33302
8.45675
8.56739
8.6668
8.75672
8.83806
8.91171
8.97844
9.03868
9.09302
9.14217
9.18668
9.22736
9.26505
9.30018
9.33266
9.36248
9.38973
9.41443
9.43674
9.45687
9.47491
9.49102
9.50529
9.51777
9.52859
9.53801
9.54624
9.55347
9.55981
9.56542
9.57037
9.57476
9.57868
9.58221
9.58543
9.5884
9.59116
9.5937
9.59601
9.59808
9.59989
9.60143
9.60269
9.60363
9.60426
9.60456
5.83135
5.84703
5.87962
5.9317
6.00715
6.11084
6.24727
6.41735
6.61411
6.8233
7.03561
7.24547
7.44716
7.63888
7.8202
7.98922
8.14562
8.28896
8.41719
8.53087
8.63267
8.72482
8.80806
8.88339
8.9517
9.01321
9.06858
9.11863
9.16381
9.20508
9.24351
9.27959
9.31299
9.34364
9.37166
9.397
9.41986
9.44048
9.45895
9.47543
9.49003
9.50272
9.51365
9.52312
9.53141
9.53867
9.54505
9.55068
9.55565
9.56005
9.56399
9.56754
9.57077
9.57379
9.57662
9.57924
9.58163
9.58378
9.58566
9.58727
9.58858
9.58957
9.59022
9.59054
5.65982
5.67507
5.70697
5.75845
5.83413
5.94024
6.08324
6.2658
6.47976
6.70535
6.93239
7.15595
7.36882
7.57004
7.76029
7.93679
8.09982
8.24933
8.38177
8.49792
8.60162
8.69578
8.78068
8.85747
8.92725
8.98987
9.0461
9.09692
9.1426
9.18424
9.22331
9.26035
9.29464
9.32607
9.35483
9.38075
9.40408
9.42517
9.44402
9.46083
9.47575
9.48862
9.4996
9.50909
9.5174
9.52467
9.53105
9.5367
9.54167
9.54607
9.55002
9.55356
9.5568
9.55985
9.56276
9.56545
9.56792
9.57015
9.57211
9.57378
9.57515
9.57618
9.57685
9.57718
5.49348
5.50813
5.53892
5.58912
5.66409
5.77152
5.9204
6.11612
6.34953
6.59235
6.83421
7.07196
7.29565
7.50587
7.70508
7.88868
8.05807
8.21401
8.35037
8.4683
8.57338
8.66941
8.75573
8.83375
8.90496
8.96852
9.02542
9.07694
9.12292
9.1647
9.2043
9.24238
9.27752
9.30966
9.33917
9.3656
9.38933
9.41088
9.43006
9.44716
9.46241
9.47543
9.4864
9.49585
9.50417
9.51142
9.51778
9.52343
9.52839
9.53277
9.53671
9.54023
9.54346
9.54655
9.54953
9.5523
9.55484
9.55716
9.55919
9.56092
9.56237
9.56343
9.56413
9.56445
5.33239
5.34625
5.37554
5.42378
5.49699
5.60444
5.75821
5.96777
6.2237
6.48442
6.7409
6.99359
7.22756
7.44603
7.65444
7.84465
8.02001
8.18294
8.32289
8.44175
8.54762
8.64554
8.73302
8.812
8.8847
8.94902
9.00639
9.0586
9.10468
9.14633
9.18632
9.22559
9.26157
9.29434
9.32463
9.35148
9.37553
9.39754
9.41699
9.43435
9.44997
9.46311
9.47399
9.48335
9.49166
9.49887
9.50519
9.51084
9.51577
9.52012
9.52405
9.52754
9.53073
9.53384
9.53692
9.53977
9.54237
9.54478
9.54688
9.54867
9.55019
9.5513
9.55201
9.55234
5.1766
5.18949
5.2169
5.2625
5.33287
5.43882
5.59606
5.82005
6.10276
6.38175
6.65214
6.92101
7.1644
7.39008
7.60832
7.80441
7.98519
8.15614
8.29928
8.418
8.524
8.62404
8.71237
8.792
8.86639
8.93126
8.98884
9.04185
9.0878
9.12897
9.16923
9.20996
9.24672
9.28001
9.31115
9.33835
9.3626
9.3851
9.40476
9.42232
9.43838
9.4516
9.46232
9.47153
9.47984
9.48699
9.49324
9.4989
9.50378
9.50807
9.512
9.51544
9.51858
9.5217
9.52489
9.52781
9.53048
9.53299
9.53515
9.537
9.5386
9.53975
9.54047
9.54079
5.02612
5.03792
5.0631
5.10542
5.17181
5.27451
5.43328
5.67201
5.98754
6.28457
6.56744
6.85456
7.10605
7.33743
7.56677
7.76771
7.95302
8.13372
8.27953
8.39676
8.5021
8.60483
8.69364
8.77349
8.84999
8.91511
8.97259
9.02664
9.07222
9.11247
9.15284
9.19547
9.23292
9.26656
9.29872
9.32612
9.35044
9.37354
9.39332
9.41099
9.42764
9.4409
9.45133
9.46033
9.46868
9.47573
9.48188
9.48757
9.49238
9.4966
9.50053
9.5039
9.50695
9.51008
9.51342
9.5164
9.51912
9.52175
9.52396
9.52586
9.52757
9.52876
9.52948
9.52979
4.88099
4.89155
4.91422
4.95266
5.01397
5.11146
5.26917
5.52231
5.87931
6.19313
6.486
6.79478
7.05238
7.2873
7.53005
7.73427
7.92275
8.11598
8.26366
8.3777
8.48144
8.58794
8.67667
8.75614
8.8355
8.90048
8.95742
9.013
9.05788
9.09669
9.13692
9.18216
9.22014
9.25385
9.28734
9.31476
9.33894
9.36284
9.38259
9.40026
9.41772
9.43096
9.44098
9.44968
9.45814
9.46506
9.47106
9.47683
9.48154
9.48566
9.48963
9.49291
9.49583
9.49894
9.5025
9.50552
9.50827
9.51106
9.5133
9.51524
9.51708
9.51831
9.51901
9.51931
4.74118
4.75042
4.77033
4.80437
4.85952
4.94972
5.10301
5.36913
5.77999
6.10772
6.40659
6.74256
7.00326
7.23861
7.49866
7.70382
7.89334
8.10342
8.25175
8.36048
8.46142
8.5735
8.66134
8.73956
8.82304
8.88727
8.94304
9.00099
9.04475
9.08145
9.12122
9.17014
9.20832
9.24172
9.27705
9.30421
9.32797
9.35301
9.37254
9.39003
9.40865
9.42177
9.43122
9.43953
9.44822
9.45495
9.46075
9.46666
9.47124
9.47521
9.47928
9.48243
9.48518
9.48825
9.4921
9.49515
9.4979
9.50088
9.50314
9.50509
9.5071
9.50836
9.50903
9.50932
4.60667
4.61451
4.63147
4.6607
4.70873
4.78948
4.93413
5.20984
5.69237
6.0286
6.32736
6.69927
6.95852
7.18987
7.4735
7.67608
7.86341
8.09687
8.24385
8.3447
8.44128
8.56184
8.64753
8.72324
8.81283
8.87539
8.92909
8.99076
9.03282
9.06662
9.10539
9.1596
9.19745
9.22995
9.26793
9.29443
9.31736
9.3441
9.36311
9.38014
9.40046
9.4133
9.42198
9.42979
9.43891
9.44536
9.45087
9.45706
9.46145
9.46521
9.46945
9.47245
9.47497
9.47797
9.48223
9.48526
9.48795
9.49121
9.49345
9.49538
9.49763
9.4989
9.49953
9.49979
4.4774
4.48381
4.4977
4.5218
4.56189
4.63107
4.76205
5.0408
5.62041
5.95597
6.24569
6.66699
6.918
7.13903
7.45598
7.65078
7.83105
8.09759
8.24003
8.32996
8.42009
8.55351
8.63514
8.70651
8.80525
8.86474
8.91512
8.98256
9.02209
9.05203
9.08901
9.15085
9.18748
9.21825
9.26014
9.28536
9.30692
9.3362
9.35426
9.37042
9.39324
9.40555
9.41321
9.42038
9.43022
9.43627
9.44138
9.44803
9.45213
9.45562
9.46016
9.46294
9.46516
9.46803
9.4729
9.47583
9.4784
9.48205
9.48421
9.48606
9.48866
9.48991
9.49048
9.4907
4.35332
4.35827
4.36903
4.38778
4.41932
4.47503
4.58657
4.85692
5.56963
5.8899
6.15787
6.64872
6.88146
7.08333
7.44827
7.62767
7.79373
8.10746
8.24026
8.31584
8.39662
8.54938
8.62404
8.68848
8.80091
8.85524
8.90049
8.97679
9.01253
9.03756
9.0715
9.14434
9.17838
9.20625
9.25392
9.27697
9.29636
9.32948
9.34593
9.36063
9.38711
9.39848
9.40487
9.41118
9.42219
9.42765
9.43218
9.43958
9.44327
9.44636
9.45141
9.45389
9.45574
9.45838
9.46411
9.46684
9.46919
9.4734
9.4754
9.4771
9.48018
9.48137
9.48185
9.48202
4.23433
4.23783
4.24544
4.25877
4.28135
4.32204
4.40803
4.65116
5.54761
5.83025
6.05881
6.64869
6.84861
7.01903
7.45344
7.60647
7.74807
8.12913
8.24435
8.302
8.36932
8.5507
8.61413
8.66801
8.80069
8.84676
8.8844
8.97401
9.00412
9.02313
9.05214
9.14074
9.1701
9.19343
9.24964
9.26919
9.28534
9.32419
9.33809
9.35048
9.38227
9.39205
9.3969
9.40206
9.41488
9.41947
9.4232
9.43175
9.43484
9.43738
9.44322
9.44528
9.44668
9.44894
9.45592
9.45827
9.46025
9.46529
9.467
9.46845
9.4722
9.47324
9.47361
9.47374
4.12033
4.1224
4.12691
4.13482
4.1483
4.17293
4.22758
4.41402
5.5645
5.77656
5.94175
6.67278
6.81902
6.94123
7.47577
7.58691
7.68959
8.16629
8.25182
8.28816
8.33616
8.55926
8.60524
8.64355
8.80583
8.83918
8.86581
8.97504
8.99676
9.0087
9.02994
9.14096
9.16256
9.17914
9.24781
9.26196
9.27339
9.32067
9.33068
9.33958
9.37901
9.38622
9.38926
9.39288
9.40841
9.4117
9.41432
9.4246
9.42681
9.42859
9.43562
9.43709
9.43797
9.43962
9.44837
9.4501
9.45152
9.45773
9.45898
9.46003
9.46473
9.46552
9.46575
9.46583
4.0112
4.01188
4.01337
4.01598
4.02044
4.02865
4.04758
4.13275
5.63371
5.72787
5.79782
6.72887
6.79208
6.84353
7.52107
7.56867
7.61253
8.22393
8.26175
8.27427
8.29455
8.57747
8.59717
8.61316
8.81804
8.83231
8.84336
8.98097
8.99028
8.99439
9.00363
9.14622
9.15564
9.16254
9.24915
9.2552
9.25995
9.31941
9.32367
9.32742
9.37771
9.38087
9.38192
9.38342
9.40292
9.40431
9.40539
9.41823
9.41916
9.41989
9.42867
9.42929
9.42959
9.43031
9.44155
9.4423
9.4429
9.45079
9.45132
9.45177
9.45781
9.45817
9.45825
9.45828
)
;

boundaryField
{
    left
    {
        type            zeroGradient;
    }
    right
    {
        type            zeroGradient;
    }
    interface
    {
        type            fixedValue;
        value           nonuniform List<scalar> 
64
(
3.95784
3.95784
3.95784
3.95784
3.95784
3.95784
3.95784
3.95784
5.70471
5.70471
5.70471
6.77922
6.77922
6.77922
7.55986
7.55986
7.55986
8.26727
8.26727
8.26727
8.26727
8.59332
8.59332
8.59332
8.82904
8.82904
8.82904
8.98725
8.98725
8.98725
8.98725
9.15232
9.15232
9.15232
9.25193
9.25193
9.25193
9.32025
9.32025
9.32025
9.37832
9.37832
9.37832
9.37832
9.40071
9.40071
9.40071
9.41543
9.41543
9.41543
9.42549
9.42549
9.42549
9.42549
9.4385
9.4385
9.4385
9.44759
9.44759
9.44759
9.45458
9.45458
9.45458
9.45458
)
;
    }
    bottom
    {
        type            fixedValue;
        value           uniform 10;
    }
    defaultFaces
    {
        type            empty;
    }
}


// ************************************************************************* //
