/*--------------------------------*- C++ -*----------------------------------*\
| =========                 |                                                 |
| \\      /  F ield         | OpenFOAM: The Open Source CFD Toolbox           |
|  \\    /   O peration     | Version:  5.x                                   |
|   \\  /    A nd           | Web:      www.OpenFOAM.org                      |
|    \\/     M anipulation  |                                                 |
\*---------------------------------------------------------------------------*/
FoamFile
{
    version     2.0;
    format      ascii;
    class       volScalarField;
    location    "3.4";
    object      gradTx;
}
// * * * * * * * * * * * * * * * * * * * * * * * * * * * * * * * * * * * * * //

dimensions      [0 -1 0 1 0 0 0];

internalField   nonuniform List<scalar> 
2048
(
0.0208639
0.0623474
0.103074
0.142475
0.179908
0.214665
0.24601
0.273247
0.295784
0.3132
0.325293
0.332089
0.333835
0.330958
0.324019
0.313665
0.300577
0.285434
0.26888
0.251498
0.233796
0.216194
0.199029
0.182552
0.166943
0.152314
0.138726
0.126198
0.114711
0.104223
0.0946727
0.0859857
0.0780845
0.0708913
0.0643331
0.0583439
0.052866
0.0478502
0.0432552
0.0390465
0.0351956
0.0316781
0.0284728
0.0255602
0.0229214
0.0205377
0.01839
0.0164589
0.0147247
0.0131675
0.0117677
0.0105057
0.00936244
0.00831952
0.00735945
0.00646602
0.00562455
0.00482221
0.0040482
0.0032938
0.00255229
0.0018188
0.00108987
0.000363099
0.0618821
0.184942
0.305812
0.422824
0.534072
0.637429
0.730674
0.811683
0.878654
0.93031
0.966037
0.985927
0.990735
0.981765
0.960718
0.929543
0.890289
0.844991
0.79557
0.743765
0.691083
0.638771
0.587818
0.538961
0.492719
0.449422
0.409239
0.372215
0.338294
0.30734
0.279166
0.25355
0.230255
0.209051
0.189717
0.172059
0.155906
0.141112
0.127556
0.115137
0.103773
0.093392
0.0839323
0.0753373
0.0675518
0.0605206
0.0541875
0.0484949
0.0433844
0.0387973
0.0346751
0.03096
0.0275954
0.0245266
0.0217018
0.0190726
0.0165955
0.0142325
0.0119515
0.0097268
0.00753877
0.00537322
0.00322041
0.0010731
0.101642
0.303832
0.502603
0.695278
0.87872
1.04936
1.2034
1.3372
1.44763
1.53249
1.59075
1.62259
1.62934
1.61326
1.57725
1.52461
1.4588
1.38321
1.30104
1.21518
1.1281
1.04185
0.958028
0.877815
0.802033
0.73119
0.665541
0.605136
0.549862
0.499479
0.453664
0.412036
0.374198
0.339759
0.308357
0.279669
0.253416
0.229363
0.207314
0.187108
0.168612
0.151714
0.136316
0.122328
0.109663
0.0982295
0.0879374
0.0786918
0.0703969
0.0629564
0.0562745
0.0502561
0.0448086
0.0398417
0.03527
0.0310137
0.0270012
0.0231697
0.019467
0.0158512
0.0122906
0.00876289
0.00525383
0.00175133
0.140422
0.41989
0.695006
0.96221
1.21716
1.45476
1.66948
1.8559
2.00942
2.12676
2.20643
2.24878
2.25583
2.23093
2.17833
2.10279
2.00922
1.90245
1.78698
1.66684
1.54546
1.42565
1.30957
1.1988
1.09442
0.997057
0.907022
0.824336
0.748806
0.680069
0.617644
0.56098
0.509504
0.46266
0.41994
0.380896
0.345148
0.312376
0.282316
0.254754
0.229515
0.206452
0.185438
0.166354
0.149083
0.133504
0.119491
0.106914
0.09564
0.0855371
0.0764727
0.068316
0.0609385
0.0542155
0.048028
0.0422653
0.0368274
0.0316278
0.0265944
0.0216702
0.0168127
0.0119924
0.00719308
0.00239881
0.17838
0.533629
0.884003
1.22523
1.55178
1.85691
2.13307
2.37276
2.56953
2.71888
2.81881
2.86993
2.87516
2.83914
2.76766
2.6671
2.54395
2.40452
2.25466
2.09955
1.94359
1.79031
1.64239
1.50174
1.36959
1.24668
1.13331
1.02944
0.934769
0.848784
0.770824
0.700143
0.635975
0.577589
0.524328
0.475623
0.430996
0.390051
0.352466
0.317981
0.286386
0.257508
0.231197
0.207314
0.185715
0.16625
0.148761
0.133081
0.119043
0.106477
0.0952166
0.085096
0.0759516
0.0676243
0.0599614
0.0528207
0.0460743
0.0396117
0.0333418
0.0271935
0.0211145
0.0150695
0.00904313
0.00301708
0.215555
0.645218
1.07003
1.48524
1.88418
2.25825
2.5975
2.89186
3.1326
3.3137
3.43265
3.49049
3.49128
3.44128
3.34807
3.21982
3.06474
2.8907
2.70494
2.51385
2.32279
2.13596
1.95649
1.78652
1.62741
1.4799
1.34423
1.22027
1.10759
1.0055
0.913112
0.829468
0.753585
0.684542
0.621529
0.563861
0.510971
0.462396
0.417765
0.37678
0.339206
0.304853
0.273559
0.245168
0.219517
0.196428
0.175709
0.157159
0.140574
0.12575
0.112485
0.100581
0.0898386
0.080065
0.071073
0.0626882
0.054754
0.047136
0.0397247
0.032436
0.0252091
0.0180046
0.0108104
0.00360827
0.251876
0.754496
1.25301
1.74249
2.2152
2.66046
3.06539
3.41664
3.70261
3.91542
4.05201
4.11411
4.10735
4.03997
3.92167
3.7626
3.57282
3.36184
3.13837
2.91006
2.68319
2.46264
2.25185
2.05314
1.86785
1.69667
1.53975
1.39682
1.26728
1.15024
1.04457
0.949051
0.862449
0.783642
0.711667
0.645726
0.585178
0.529504
0.478291
0.431214
0.388022
0.348518
0.312539
0.279924
0.250492
0.224038
0.200337
0.17915
0.160237
0.14336
0.128283
0.114777
0.102609
0.091551
0.0813798
0.0718874
0.0628879
0.0542229
0.0457647
0.0374173
0.0291128
0.0208099
0.0125026
0.00417484
0.287159
0.860985
1.43236
1.99661
2.54504
3.0646
3.53879
3.95007
4.2831
4.5277
4.68033
4.7438
4.72582
4.63715
4.48992
4.29653
4.06896
3.81845
3.55523
3.28827
3.02482
2.77032
2.52849
2.30162
2.09098
1.8971
1.71997
1.55919
1.41397
1.28317
1.16539
1.05911
0.962799
0.875121
0.794958
0.721417
0.653795
0.59153
0.53418
0.481399
0.432928
0.388578
0.348197
0.311628
0.278678
0.249116
0.222678
0.199085
0.178061
0.159332
0.142636
0.127709
0.114288
0.102109
0.0909099
0.0804477
0.0705056
0.0609007
0.0514881
0.0421605
0.0328445
0.0234994
0.0141278
0.00471945
0.321121
0.963907
1.60703
2.24662
2.87324
3.47115
4.01933
4.4948
4.87733
5.15391
5.32064
5.38201
5.34855
5.23414
5.05378
4.82227
4.55359
4.26073
3.95556
3.64841
3.34758
3.05899
2.78644
2.53209
2.29697
2.08137
1.88511
1.70761
1.54788
1.40454
1.27587
1.15996
1.05496
0.959292
0.871693
0.791195
0.717054
0.648684
0.585617
0.527493
0.474057
0.42514
0.380618
0.340352
0.304141
0.271722
0.242788
0.217018
0.194094
0.173713
0.155582
0.139413
0.124911
0.111774
0.0996997
0.0884054
0.077642
0.0672024
0.0569248
0.0466916
0.0364251
0.0260878
0.0156946
0.00524475
0.353383
1.06219
1.7755
2.49096
3.19872
3.88004
4.50829
5.05331
5.48847
5.79719
5.97559
6.03069
5.97682
5.83173
5.6137
5.34008
5.02684
4.6887
4.33921
3.99029
3.6513
3.32857
3.02578
2.74474
2.48608
2.24979
2.03547
1.84237
1.66932
1.5147
1.37638
1.252
1.13933
1.03654
0.942217
0.855365
0.775227
0.701205
0.632816
0.569687
0.51157
0.458334
0.409909
0.366188
0.326964
0.291937
0.260747
0.233022
0.208404
0.186559
0.167173
0.149935
0.134521
0.12059
0.107792
0.0958018
0.0843361
0.0731639
0.0621067
0.051038
0.0398761
0.0285904
0.0172115
0.00575324
0.38348
1.15453
1.93582
2.72746
3.51976
4.2907
5.00666
5.62805
6.11966
6.46057
6.64752
6.69135
6.61138
6.4302
6.16974
5.84993
5.48864
5.10219
4.70591
4.31359
3.93576
3.57902
3.24664
2.93983
2.65868
2.40275
2.17143
1.96384
1.77866
1.61403
1.46735
1.33571
1.21639
1.10728
1.00691
0.91426
0.828607
0.749359
0.676017
0.608193
0.545648
0.488307
0.436187
0.389238
0.347245
0.309854
0.276644
0.247182
0.221066
0.197939
0.177467
0.159326
0.143166
0.128604
0.115235
0.102682
0.0906295
0.0788225
0.0670673
0.0552283
0.0432201
0.0310222
0.0186864
0.00624708
0.410882
1.23936
2.08563
2.95341
3.83399
4.70202
5.51524
6.22158
6.77423
7.14703
7.3385
7.36501
7.25246
7.02933
6.72157
6.35156
5.93879
5.50094
5.05528
4.61787
4.20069
3.81031
3.44922
3.11775
2.81522
2.54072
2.29345
2.07243
1.8763
1.70296
1.54929
1.41161
1.28663
1.172
1.06618
0.968227
0.877499
0.793423
0.715474
0.643241
0.576485
0.515212
0.459576
0.409612
0.365089
0.325581
0.290584
0.259596
0.23217
0.207927
0.186528
0.167639
0.150897
0.135867
0.122078
0.109094
0.096565
0.0842164
0.0718402
0.0592916
0.0464795
0.0333979
0.0201261
0.00672789
0.435009
1.315
2.22224
3.16554
4.13837
5.11232
6.03465
6.8367
7.45583
7.85957
8.05031
8.05224
7.89974
7.62848
7.26857
6.8445
6.37704
5.88472
5.38685
4.90262
4.44578
4.02246
3.63382
3.27898
2.95627
2.66426
2.40204
2.16861
1.96265
1.78193
1.62271
1.48028
1.35062
1.23117
1.12044
1.01761
0.92221
0.833677
0.751449
0.675073
0.604287
0.539205
0.480196
0.427419
0.380609
0.339231
0.30268
0.270371
0.241808
0.216604
0.194419
0.174929
0.157764
0.142433
0.128374
0.115085
0.102185
0.0893829
0.0764583
0.063257
0.0496772
0.035731
0.021536
0.0071966
0.455263
1.37962
2.3427
3.36004
4.42914
5.51929
6.56538
7.47668
8.16855
8.60122
8.78442
8.75312
8.55234
8.22653
7.80981
7.3282
6.8032
6.25332
5.70011
5.16721
4.67071
4.21556
3.80081
3.42409
3.0825
2.77401
2.49775
2.25283
2.0381
1.8514
1.68819
1.54235
1.40894
1.28531
1.1701
1.06276
0.963035
0.870398
0.784207
0.703942
0.62927
0.560441
0.498159
0.442768
0.393921
0.350924
0.313054
0.27962
0.25008
0.224052
0.201208
0.181247
0.163814
0.148355
0.134181
0.120706
0.107532
0.0943575
0.0809531
0.0671535
0.0528358
0.0380338
0.0229196
0.00765324
0.471054
1.4314
2.44386
3.53266
4.70176
5.91986
7.10778
8.14543
8.91716
9.37498
9.54193
9.46722
9.20876
8.82196
8.34421
7.802
7.21719
6.6067
5.99444
5.41084
4.87513
4.38979
3.95069
3.5538
3.19467
2.87064
2.58121
2.32559
2.10301
1.91177
1.74634
1.59851
1.4622
1.33491
1.21557
1.10397
1.00025
0.903859
0.81401
0.730113
0.651658
0.579064
0.513561
0.455759
0.405144
0.360786
0.321832
0.287463
0.257086
0.230355
0.206957
0.186639
0.169094
0.153688
0.139554
0.126004
0.112645
0.0991733
0.0853538
0.0710103
0.0559788
0.040317
0.0242776
0.0080966
0.481838
1.46861
2.52254
3.67876
4.95089
6.31008
7.66201
8.84784
9.7073
10.1837
10.3235
10.1936
9.86685
9.41291
8.87052
8.26519
7.61918
6.94507
6.26916
5.63253
5.05874
4.5455
4.08406
3.66893
3.29367
2.95488
2.65303
2.38738
2.1577
1.96341
1.79779
1.6495
1.511
1.38048
1.25724
1.14153
1.03413
0.934319
0.841112
0.75386
0.67169
0.595203
0.526476
0.46649
0.414402
0.368945
0.329147
0.294024
0.262929
0.235597
0.211731
0.191143
0.173639
0.158491
0.144557
0.131026
0.117559
0.10386
0.0896861
0.074857
0.0591311
0.0425888
0.0256069
0.00852391
0.48715
1.48968
2.57567
3.79341
5.17031
6.68481
8.22795
9.59014
10.5457
11.0299
11.1292
10.9307
10.5237
9.99716
9.38745
8.71697
8.0097
7.26907
6.52341
5.83096
5.22125
4.68324
4.2016
3.77043
3.38048
3.02748
2.71391
2.4387
2.20236
2.00662
1.84327
1.69616
1.55597
1.4225
1.29547
1.17565
1.06489
0.962031
0.86575
0.775479
0.689624
0.608965
0.536942
0.47505
0.421826
0.375528
0.335135
0.299431
0.267705
0.239865
0.215591
0.194785
0.177479
0.162824
0.149256
0.135816
0.122308
0.108442
0.0939707
0.0787245
0.0623209
0.0448548
0.0268997
0.00893034
0.486639
1.49333
2.60042
3.87158
5.35295
7.03749
8.80494
10.3804
11.4408
11.9152
11.9586
11.6769
11.1755
10.5724
9.89382
9.15629
8.38977
7.57993
6.75605
6.00438
5.3625
4.80382
4.30406
3.85937
3.4562
3.08912
2.76456
2.48011
2.23706
2.04154
1.88356
1.73943
1.59765
1.46142
1.33061
1.20651
1.09275
0.98724
0.888132
0.795288
0.705754
0.620425
0.544954
0.481527
0.427562
0.38066
0.339939
0.303819
0.271509
0.243243
0.218599
0.19758
0.18063
0.166756
0.153727
0.14041
0.12692
0.112943
0.0982213
0.0826462
0.0655812
0.0471164
0.0281412
0.0093083
0.480101
1.47867
2.59444
3.90833
5.49086
7.35978
9.39143
11.2292
12.4026
12.8397
12.8106
12.4303
11.8172
11.136
10.3887
9.58167
8.76109
7.87976
6.96548
6.15039
5.48256
4.90851
4.39209
3.93692
3.5221
3.1404
2.80576
2.51223
2.26167
2.06816
1.9196
1.78039
1.63652
1.49766
1.36302
1.23416
1.1179
1.0102
0.908411
0.81364
0.720426
0.629608
0.550442
0.486015
0.431775
0.384454
0.343705
0.307331
0.274417
0.245823
0.220824
0.19952
0.18309
0.170365
0.158056
0.144836
0.131416
0.117379
0.102441
0.0866594
0.0689537
0.0493694
0.0293075
0.00964676
0.467492
1.44528
2.55596
3.89904
5.57541
7.64106
9.98434
12.1509
13.4442
13.8009
13.6834
13.1892
12.4421
11.6861
10.8719
9.99071
9.12624
8.17195
7.14939
6.26568
5.58189
4.9991
4.46617
4.00444
3.57967
3.18167
2.83838
2.53586
2.27579
2.08619
1.95254
1.82034
1.67288
1.53163
1.39306
1.25853
1.14055
1.03118
0.926651
0.830938
0.734065
0.636469
0.553259
0.488627
0.434665
0.386999
0.346586
0.310119
0.276488
0.247698
0.222343
0.200571
0.184832
0.173749
0.162349
0.149102
0.135816
0.121768
0.106616
0.0908083
0.0724931
0.0516013
0.0303632
0.0099304
0.448951
1.39326
2.48402
3.83977
5.59741
7.86808
10.5781
13.1642
14.5819
14.7917
14.5751
13.9531
13.0411
12.2208
11.3442
10.3794
9.48904
8.46171
7.30428
6.34573
5.66163
5.07822
4.52627
4.06344
3.63069
3.21288
2.86342
2.55205
2.27864
2.095
1.98382
1.86086
1.70672
1.56373
1.42119
1.27933
1.16092
1.05053
0.942767
0.847663
0.747224
0.64086
0.553148
0.489516
0.43648
0.38834
0.348749
0.312361
0.27774
0.248974
0.223256
0.200667
0.185796
0.177037
0.166736
0.153187
0.140139
0.12613
0.11071
0.0951475
0.0762733
0.0537872
0.0312584
0.0101391
0.424788
1.32328
2.3786
3.72752
5.54753
8.02443
11.163
14.2948
15.8368
15.7982
15.4838
14.7238
13.6013
12.74
11.808
10.7407
9.85495
8.75682
7.42493
6.38436
5.72397
5.14956
4.57143
4.11571
3.67743
3.2333
2.88211
2.5623
2.26897
2.0934
2.01539
1.90393
1.73755
1.59436
1.44801
1.29599
1.1793
1.06867
0.956436
0.8644
0.760632
0.642486
0.549716
0.488904
0.437542
0.388443
0.350377
0.314262
0.278131
0.249775
0.223699
0.199693
0.185876
0.180395
0.171382
0.157025
0.144403
0.130494
0.114647
0.0997472
0.0803957
0.0558838
0.0319256
0.0102475
0.395484
1.23652
2.24068
3.56062
5.41678
8.09029
11.7231
15.5771
17.2367
16.7956
16.4092
15.5067
14.1039
13.2454
12.2687
11.0634
10.2317
9.0686
7.5035
6.37324
5.77274
5.21826
4.59916
4.16352
3.72288
3.24108
2.89603
2.56877
2.24484
2.07956
2.04981
1.95207
1.76411
1.62407
1.47438
1.30747
1.19612
1.08622
0.96696
0.881894
0.775277
0.640838
0.542398
0.487129
0.438277
0.387149
0.351691
0.316085
0.277524
0.250255
0.223863
0.197477
0.184899
0.184056
0.176503
0.160476
0.148643
0.13491
0.118294
0.104701
0.0850005
0.0578198
0.0322783
0.0102258
0.361656
1.13471
2.07228
3.33902
5.19725
8.04236
12.2333
17.057
18.8183
17.743
17.3538
16.3131
14.5217
13.7425
12.7356
11.3288
10.6304
9.41325
7.52837
6.30138
5.81408
5.29145
4.60447
4.20983
3.77112
3.23273
2.9073
2.57458
2.20344
2.05066
2.0906
2.00855
1.78397
1.6536
1.5016
1.31203
1.21203
1.1041
0.973077
0.901121
0.792504
0.635104
0.530412
0.484692
0.439245
0.384104
0.352968
0.318173
0.27564
0.250615
0.224021
0.193763
0.182611
0.188335
0.182381
0.163293
0.152915
0.139464
0.121437
0.110136
0.09028
0.0594836
0.0322104
0.0100413
0.324035
1.01996
1.87645
3.06456
4.88299
7.85423
12.6542
18.796
20.6307
18.5765
18.326
17.1637
14.8142
14.2419
13.2245
11.5077
11.0665
9.81345
7.48262
6.15447
5.85736
5.37884
4.57867
4.25879
3.82781
3.20224
2.91885
2.58421
2.14077
2.00265
2.14251
2.07764
1.79302
1.68414
1.5316
1.30692
1.2281
1.12364
0.972688
0.92339
0.81414
0.624052
0.512718
0.482337
0.4412
0.378655
0.354579
0.320991
0.27199
0.251128
0.224561
0.188193
0.17864
0.193663
0.189394
0.165065
0.157325
0.1443
0.123737
0.116229
0.0964973
0.0607043
0.0315984
0.00966073
0.283418
0.894712
1.65712
2.74117
4.47102
7.49753
12.9269
20.8753
22.7399
19.1992
19.3439
18.0919
14.922
14.7625
13.7596
11.5554
11.562
10.3004
7.34195
5.91431
5.9163
5.49353
4.50756
4.31636
3.90085
3.14001
2.93487
2.60395
2.05133
1.92988
2.21195
2.16496
1.78469
1.71757
1.56727
1.28795
1.24595
1.14683
0.962492
0.950486
0.842651
0.605873
0.487974
0.481128
0.445142
0.369729
0.357041
0.325178
0.265781
0.252172
0.226027
0.180276
0.172468
0.200626
0.198041
0.165157
0.162053
0.149652
0.124679
0.123231
0.104007
0.0612273
0.0303072
0.00905524
0.240636
0.761581
1.41895
2.37483
3.96243
6.94399
12.9651
23.4017
25.2347
19.4688
20.4407
19.1492
14.7591
15.335
14.3776
11.4056
12.148
10.9161
7.07211
5.55828
6.01024
5.65301
4.36931
4.39127
4.00123
3.03138
2.96133
2.64243
1.92769
1.82461
2.30747
2.27794
1.74904
1.7569
1.6128
1.24882
1.26808
1.17655
0.937511
0.984875
0.881319
0.577983
0.454496
0.48255
0.4524
0.355649
0.361093
0.331618
0.255797
0.254281
0.229165
0.169351
0.163387
0.210004
0.20899
0.162613
0.167394
0.155878
0.123508
0.131491
0.113279
0.0606807
0.0282013
0.00820505
0.196508
0.623242
1.16707
1.97343
3.36339
6.16891
12.6446
26.5131
28.2348
19.1819
21.6727
20.4107
14.2017
16.0064
15.1314
10.9621
12.8681
11.716
6.6257
5.05889
6.16551
5.88045
4.13156
4.49622
4.14412
2.85477
3.00675
2.71125
1.76001
1.67659
2.44023
2.42636
1.67156
1.8068
1.67413
1.18043
1.2982
1.2169
0.89047
1.02997
0.934453
0.536775
0.410233
0.488619
0.464729
0.333924
0.367793
0.341526
0.240244
0.258206
0.234972
0.154553
0.150454
0.222825
0.223131
0.156044
0.17382
0.163517
0.119132
0.1415
0.124933
0.0585332
0.0251616
0.00710548
0.151812
0.482297
0.906795
1.54644
2.6859
5.15639
11.7915
30.3866
31.9004
18.0541
23.1281
21.9828
13.0763
16.8466
16.0959
10.0889
13.7828
12.7722
5.93833
4.38371
6.41689
6.20617
3.74796
4.64958
4.35007
2.57933
3.08327
2.82555
1.53551
1.47242
2.62469
2.62308
1.53168
1.87433
1.75947
1.06983
1.34172
1.27362
0.811045
1.09046
1.00761
0.477327
0.352756
0.501985
0.484426
0.300976
0.378649
0.356548
0.216557
0.265008
0.244754
0.13476
0.132433
0.240415
0.241637
0.143489
0.182039
0.173339
0.110019
0.153945
0.139764
0.0540398
0.0211098
0.00577212
0.107253
0.341159
0.643356
1.10433
1.94806
3.9066
10.1672
35.2454
36.444
15.6965
24.9405
24.0109
11.1431
17.9557
17.3735
8.59798
14.9755
14.1758
4.92412
3.49549
6.80899
6.66962
3.154
4.87745
4.64648
2.16216
3.20795
3.00464
1.23789
1.19502
2.87909
2.88489
1.30096
1.96984
1.87994
0.899059
1.40633
1.35452
0.684932
1.17281
1.10781
0.393051
0.279283
0.526045
0.514479
0.251817
0.395776
0.378886
0.181167
0.276158
0.260176
0.108555
0.107744
0.264455
0.266054
0.122242
0.193094
0.186423
0.0940617
0.16977
0.158782
0.0461771
0.0160406
0.0042439
0.0634445
0.201973
0.38162
0.657891
1.17356
2.4455
7.45063
41.3681
42.1458
11.5879
27.3025
26.6883
8.07774
19.4734
19.1019
6.2355
16.5598
16.0407
3.47063
2.35296
7.39742
7.32153
2.26213
5.21619
5.06925
1.545
3.40441
3.27257
0.846705
0.822987
3.22613
3.23353
0.941071
2.10809
2.05023
0.643761
1.50269
1.47009
0.49278
1.28574
1.24381
0.275309
0.186735
0.565026
0.558743
0.17967
0.4221
0.411428
0.12923
0.293683
0.283312
0.074173
0.0743961
0.297034
0.298395
0.0886534
0.208457
0.204231
0.0684178
0.190259
0.183246
0.0335653
0.0100633
0.00258244
0.0208994
0.0665556
0.125869
0.217445
0.390182
0.837255
3.21831
49.0965
49.3697
5.04299
30.4844
30.2661
3.4501
21.5901
21.4611
2.6653
18.6879
18.5053
1.43328
0.912034
8.2496
8.22669
0.956242
5.71544
5.66448
0.650477
3.70486
3.65848
0.336835
0.33003
3.69345
3.69695
0.401346
2.30955
2.28933
0.271562
1.64523
1.63401
0.208955
1.44094
1.42625
0.112972
0.0718416
0.624045
0.622149
0.0755448
0.461583
0.457899
0.0543149
0.320325
0.316674
0.0294595
0.0299338
0.340699
0.341258
0.0379043
0.230161
0.228699
0.0293345
0.217135
0.214699
0.0143793
0.00345124
0.000865643
)
;

boundaryField
{
    left
    {
        type            calculated;
        value           uniform 0;
    }
    right
    {
        type            calculated;
        value           uniform 0;
    }
    interface
    {
        type            calculated;
        value           nonuniform List<scalar> 
64
(
0.0208994
0.0665556
0.125869
0.217445
0.390182
0.837255
3.21831
49.0965
49.3697
5.04299
30.4844
30.2661
3.4501
21.5901
21.4611
2.6653
18.6879
18.5053
1.43328
0.912034
8.2496
8.22669
0.956242
5.71544
5.66448
0.650477
3.70486
3.65848
0.336835
0.33003
3.69345
3.69695
0.401346
2.30955
2.28933
0.271562
1.64523
1.63401
0.208955
1.44094
1.42625
0.112972
0.0718416
0.624045
0.622149
0.0755448
0.461583
0.457899
0.0543149
0.320325
0.316674
0.0294595
0.0299338
0.340699
0.341258
0.0379043
0.230161
0.228699
0.0293345
0.217135
0.214699
0.0143793
0.00345124
0.000865643
)
;
    }
    bottom
    {
        type            calculated;
        value           nonuniform List<scalar> 
64
(
0.0208639
0.0623474
0.103074
0.142475
0.179908
0.214665
0.24601
0.273247
0.295784
0.3132
0.325293
0.332089
0.333835
0.330958
0.324019
0.313665
0.300577
0.285434
0.26888
0.251498
0.233796
0.216194
0.199029
0.182552
0.166943
0.152314
0.138726
0.126198
0.114711
0.104223
0.0946727
0.0859857
0.0780845
0.0708913
0.0643331
0.0583439
0.052866
0.0478502
0.0432552
0.0390465
0.0351956
0.0316781
0.0284728
0.0255602
0.0229214
0.0205377
0.01839
0.0164589
0.0147247
0.0131675
0.0117677
0.0105057
0.00936244
0.00831952
0.00735945
0.00646602
0.00562455
0.00482221
0.0040482
0.0032938
0.00255229
0.0018188
0.00108987
0.000363099
)
;
    }
    defaultFaces
    {
        type            empty;
    }
}


// ************************************************************************* //
