/*--------------------------------*- C++ -*----------------------------------*\
| =========                 |                                                 |
| \\      /  F ield         | OpenFOAM: The Open Source CFD Toolbox           |
|  \\    /   O peration     | Version:  5.x                                   |
|   \\  /    A nd           | Web:      www.OpenFOAM.org                      |
|    \\/     M anipulation  |                                                 |
\*---------------------------------------------------------------------------*/
FoamFile
{
    version     2.0;
    format      ascii;
    class       volScalarField;
    location    "3.4";
    object      gradTy;
}
// * * * * * * * * * * * * * * * * * * * * * * * * * * * * * * * * * * * * * //

dimensions      [0 -1 0 1 0 0 0];

internalField   nonuniform List<scalar> 
2048
(
-20.868
-20.777
-20.5961
-20.3274
-19.9745
-19.5424
-19.0376
-18.4685
-17.8447
-17.1772
-16.4775
-15.7574
-15.0283
-14.301
-13.585
-12.8885
-12.2181
-11.5791
-10.9752
-10.4088
-9.88096
-9.39191
-8.94096
-8.52681
-8.14769
-7.80154
-7.48611
-7.19908
-6.93813
-6.70103
-6.48564
-6.29001
-6.11234
-5.95101
-5.80456
-5.6717
-5.55125
-5.44216
-5.34349
-5.25437
-5.17398
-5.10158
-5.03647
-4.978
-4.92554
-4.87853
-4.83642
-4.79873
-4.76501
-4.73484
-4.70788
-4.68378
-4.66229
-4.64315
-4.62618
-4.6112
-4.5981
-4.58677
-4.57715
-4.56918
-4.56283
-4.55808
-4.55492
-4.55335
-20.9415
-20.8496
-20.6669
-20.3955
-20.0385
-19.601
-19.0896
-18.5126
-17.88
-17.2031
-16.4938
-15.7645
-15.0268
-14.2917
-13.569
-12.8671
-12.1925
-11.5505
-10.9447
-10.3773
-9.84934
-9.36082
-8.91091
-8.49818
-8.12072
-7.77638
-7.46283
-7.17766
-6.91852
-6.68312
-6.46932
-6.27514
-6.09878
-5.93862
-5.79322
-5.66129
-5.54169
-5.43337
-5.3354
-5.24692
-5.16713
-5.0953
-5.03072
-4.97274
-4.92075
-4.87416
-4.83245
-4.79513
-4.76173
-4.73186
-4.70515
-4.68128
-4.65998
-4.641
-4.62415
-4.60928
-4.59625
-4.58498
-4.5754
-4.56746
-4.56113
-4.55639
-4.55324
-4.55166
-21.0812
-20.9878
-20.8018
-20.5251
-20.1606
-19.7129
-19.1888
-18.5967
-17.9472
-17.2522
-16.5246
-15.7774
-15.0231
-14.2733
-13.538
-12.8257
-12.1432
-11.4956
-10.8862
-10.3171
-9.78902
-9.30162
-8.85379
-8.44382
-8.0696
-7.72874
-7.41878
-7.13718
-6.88149
-6.64934
-6.43855
-6.24711
-6.07321
-5.91526
-5.77183
-5.64167
-5.52365
-5.41678
-5.32013
-5.23286
-5.15421
-5.08344
-5.01986
-4.96282
-4.9117
-4.86593
-4.82497
-4.78833
-4.75556
-4.72624
-4.70001
-4.67657
-4.65562
-4.63695
-4.62034
-4.60566
-4.59278
-4.58162
-4.57211
-4.56421
-4.55791
-4.55319
-4.55005
-4.54847
-21.2793
-21.1839
-20.9936
-20.7097
-20.3346
-19.8728
-19.3305
-18.7167
-18.0427
-17.3216
-16.5674
-15.7945
-15.0164
-14.2454
-13.4922
-12.7654
-12.0718
-11.4164
-10.8022
-10.231
-9.70297
-9.21741
-8.77274
-8.36687
-7.99735
-7.66154
-7.35675
-7.08026
-6.82948
-6.60196
-6.39543
-6.20785
-6.03742
-5.88256
-5.74188
-5.61418
-5.49838
-5.39351
-5.2987
-5.21314
-5.13607
-5.06679
-5.00461
-4.94889
-4.89901
-4.85439
-4.81449
-4.77882
-4.74691
-4.71837
-4.69284
-4.66999
-4.64955
-4.63129
-4.61502
-4.60061
-4.58792
-4.5769
-4.56749
-4.55966
-4.55339
-4.54869
-4.54555
-4.54398
-21.529
-21.4313
-21.2361
-20.9437
-20.556
-20.0764
-19.5111
-18.8695
-18.1638
-17.4088
-16.6202
-15.8141
-15.0054
-14.2075
-13.4316
-12.6866
-11.9793
-11.3144
-10.6946
-10.1211
-9.59364
-9.11079
-8.67046
-8.27005
-7.90669
-7.57742
-7.27926
-7.0093
-6.76478
-6.5431
-6.34192
-6.15918
-5.99306
-5.84202
-5.70474
-5.58007
-5.46699
-5.3646
-5.27205
-5.18859
-5.1135
-5.04607
-4.98564
-4.93157
-4.88324
-4.84006
-4.80148
-4.76701
-4.7362
-4.70863
-4.68395
-4.66184
-4.64203
-4.62429
-4.60845
-4.59435
-4.58191
-4.57105
-4.56175
-4.55399
-4.54776
-4.54308
-4.53995
-4.53837
-21.8243
-21.7244
-21.524
-21.2227
-20.8207
-20.3205
-19.7279
-19.0525
-18.3081
-17.5114
-16.6807
-15.8342
-14.9886
-14.1585
-13.3557
-12.5893
-11.8662
-11.1906
-10.5648
-9.98928
-9.46309
-8.98405
-8.54936
-8.15581
-7.80005
-7.47874
-7.1886
-6.92649
-6.68943
-6.47469
-6.27984
-6.10275
-5.94164
-5.79503
-5.66166
-5.54048
-5.43053
-5.33098
-5.24104
-5.16001
-5.08719
-5.02192
-4.96353
-4.9114
-4.86488
-4.82339
-4.78638
-4.75333
-4.72379
-4.69736
-4.67368
-4.65244
-4.63336
-4.61622
-4.60085
-4.58712
-4.57494
-4.56427
-4.55508
-4.54738
-4.54119
-4.53651
-4.53338
-4.53181
-22.1595
-22.0577
-21.8527
-21.5425
-21.1256
-20.6027
-19.9788
-19.2639
-18.4736
-17.6275
-16.7469
-15.8528
-14.9643
-14.0971
-13.2637
-12.4734
-11.7328
-11.0457
-10.4139
-9.83699
-9.31313
-8.83923
-8.4116
-8.02637
-7.67965
-7.36768
-7.08686
-6.83381
-6.60533
-6.39853
-6.21083
-6.04009
-5.88456
-5.74284
-5.61378
-5.49642
-5.38991
-5.29348
-5.20643
-5.12807
-5.05778
-4.99492
-4.93883
-4.88888
-4.84441
-4.80483
-4.76956
-4.73811
-4.71001
-4.68486
-4.6623
-4.64202
-4.62376
-4.60729
-4.59244
-4.5791
-4.56721
-4.55672
-4.54764
-4.54
-4.53382
-4.52915
-4.52601
-4.52443
-22.5292
-22.4263
-22.2179
-21.9
-21.4683
-20.9214
-20.2626
-19.5025
-18.6589
-17.755
-16.8166
-15.868
-14.9307
-14.022
-13.1548
-12.3385
-11.5792
-10.8803
-10.2429
-9.66559
-9.14543
-8.67818
-8.25919
-7.88379
-7.54751
-7.24619
-6.97594
-6.73309
-6.51422
-6.31622
-6.13641
-5.97259
-5.82307
-5.68657
-5.56209
-5.4488
-5.34595
-5.25286
-5.16888
-5.0934
-5.02583
-4.96558
-4.912
-4.86444
-4.82223
-4.78474
-4.7514
-4.72169
-4.69515
-4.67139
-4.65006
-4.63084
-4.61347
-4.59771
-4.58342
-4.57049
-4.55888
-4.54857
-4.53959
-4.53198
-4.5258
-4.52111
-4.51796
-4.51637
-22.9283
-22.8254
-22.6156
-22.2919
-21.847
-21.2755
-20.5787
-19.7674
-18.8625
-17.8923
-16.8876
-15.8774
-14.8859
-13.9317
-13.0282
-12.1842
-11.4055
-10.6949
-10.0526
-9.4763
-8.96151
-8.50268
-8.094
-7.72996
-7.4055
-7.1161
-6.85756
-6.62596
-6.41765
-6.22927
-6.05797
-5.90151
-5.75829
-5.62723
-5.50751
-5.39844
-5.29939
-5.20977
-5.12899
-5.05652
-4.99182
-4.93434
-4.88346
-4.83848
-4.79871
-4.76348
-4.7322
-4.70435
-4.67949
-4.65722
-4.6372
-4.61911
-4.60268
-4.58768
-4.57396
-4.56145
-4.55011
-4.53995
-4.53105
-4.52345
-4.51725
-4.51252
-4.50933
-4.50772
-23.3516
-23.2502
-23.0418
-22.7158
-22.2601
-21.6646
-20.9272
-20.0585
-19.0836
-18.0374
-16.9578
-15.8789
-14.828
-13.825
-12.8829
-12.0102
-11.2119
-10.49
-9.84396
-9.27029
-8.76287
-8.31442
-7.91784
-7.56668
-7.25536
-6.97904
-6.73327
-6.51392
-6.31705
-6.13903
-5.97676
-5.82797
-5.69124
-5.56571
-5.4508
-5.34602
-5.25086
-5.16478
-5.08729
-5.01791
-4.95618
-4.90161
-4.85357
-4.81134
-4.77417
-4.74134
-4.71224
-4.68635
-4.66325
-4.64255
-4.62391
-4.607
-4.59156
-4.57735
-4.56422
-4.55211
-4.54102
-4.531
-4.52213
-4.51452
-4.50826
-4.50347
-4.50024
-4.49861
-23.7938
-23.6961
-23.4928
-23.1691
-22.7067
-22.089
-21.3088
-20.3761
-19.3212
-18.1885
-17.0247
-15.87
-14.755
-13.7003
-12.7182
-11.8163
-10.9984
-10.2658
-9.61755
-9.04868
-8.55098
-8.11509
-7.73242
-7.39565
-7.0987
-6.8365
-6.60449
-6.3983
-6.21371
-6.04673
-5.89394
-5.75302
-5.6228
-5.50277
-5.39266
-5.29216
-5.2009
-5.1184
-5.04422
-4.97797
-4.91927
-4.86769
-4.82265
-4.78334
-4.7489
-4.71859
-4.69177
-4.66792
-4.64664
-4.62756
-4.61035
-4.59469
-4.58029
-4.56688
-4.55433
-4.54261
-4.53174
-4.52182
-4.51296
-4.50528
-4.49893
-4.49405
-4.49075
-4.48909
-24.2498
-24.1583
-23.9648
-23.6494
-23.1862
-22.5496
-21.7251
-20.721
-19.5747
-18.3436
-17.0856
-15.848
-14.6648
-13.5564
-12.5337
-11.6024
-10.7652
-10.0229
-9.37413
-8.8126
-8.32734
-7.90635
-7.53946
-7.21849
-6.93698
-6.68985
-6.47246
-6.28026
-6.10878
-5.95351
-5.81056
-5.67755
-5.55374
-5.43908
-5.33363
-5.23737
-5.15
-5.07107
-5.0002
-4.93706
-4.88138
-4.83289
-4.79098
-4.75473
-4.72318
-4.69549
-4.67102
-4.64926
-4.62984
-4.61243
-4.5967
-4.58232
-4.56899
-4.5564
-4.54442
-4.53305
-4.52238
-4.51251
-4.50361
-4.49582
-4.48933
-4.48434
-4.48096
-4.47927
-24.7142
-24.6318
-24.4538
-24.1544
-23.6983
-23.0481
-22.1785
-21.0946
-19.8432
-18.5002
-17.1375
-15.8101
-14.5554
-13.3924
-12.3289
-11.3688
-10.5129
-9.76165
-9.11431
-8.56317
-8.09349
-7.68988
-7.34061
-7.03674
-6.77157
-6.54028
-6.33828
-6.16085
-6.00327
-5.8604
-5.7276
-5.6024
-5.48472
-5.37516
-5.2742
-5.18208
-5.09857
-5.02317
-4.95556
-4.89547
-4.84279
-4.79742
-4.75878
-4.72577
-4.69722
-4.67225
-4.65017
-4.63053
-4.61299
-4.59727
-4.58306
-4.57002
-4.55779
-4.54603
-4.53459
-4.52354
-4.51301
-4.50316
-4.49416
-4.48621
-4.47954
-4.47439
-4.47092
-4.4692
-25.1816
-25.1117
-24.9558
-24.6816
-24.2427
-23.5866
-22.6725
-21.4991
-20.1259
-18.6554
-17.1773
-15.7534
-14.4248
-13.2075
-12.1038
-11.1158
-10.2421
-9.48238
-8.83859
-8.30154
-7.85109
-7.46741
-7.13751
-6.85189
-6.60369
-6.38884
-6.2029
-6.04092
-5.89809
-5.76838
-5.64597
-5.52827
-5.41629
-5.31149
-5.21473
-5.12665
-5.04695
-4.97502
-4.9106
-4.85348
-4.80368
-4.76146
-4.72627
-4.69668
-4.67126
-4.64906
-4.62941
-4.61188
-4.59623
-4.58222
-4.56954
-4.55788
-4.54681
-4.53588
-4.52494
-4.51416
-4.50372
-4.49382
-4.48469
-4.47653
-4.46961
-4.46427
-4.46069
-4.45894
-25.6468
-25.593
-25.4664
-25.2282
-24.8194
-24.1682
-23.2116
-21.9373
-20.4214
-18.8059
-17.2014
-15.6747
-14.2713
-13.0012
-11.8586
-10.8443
-9.95348
-9.18532
-8.54729
-8.02888
-7.60192
-7.24065
-6.93172
-6.66533
-6.43443
-6.23645
-6.06713
-5.92117
-5.794
-5.67839
-5.56658
-5.45578
-5.34889
-5.2484
-5.15551
-5.07135
-4.99548
-4.92692
-4.86561
-4.81131
-4.7642
-4.72514
-4.69361
-4.66767
-4.64547
-4.6261
-4.6089
-4.59344
-4.57966
-4.56736
-4.55623
-4.546
-4.53615
-4.52605
-4.51555
-4.50497
-4.49458
-4.48458
-4.47526
-4.46683
-4.45959
-4.45402
-4.45033
-4.44856
-26.1044
-26.0704
-25.9812
-25.7913
-25.4282
-24.7962
-23.802
-22.4133
-20.7275
-18.9473
-17.2061
-15.5703
-14.093
-12.7738
-11.5939
-10.5555
-9.64848
-8.87048
-8.24043
-7.74645
-7.34803
-7.01133
-6.72479
-6.47843
-6.2647
-6.08385
-5.93169
-5.80213
-5.69163
-5.59131
-5.49031
-5.38544
-5.28282
-5.18618
-5.09671
-5.01642
-4.94442
-4.87911
-4.82083
-4.76918
-4.72444
-4.68854
-4.66096
-4.63893
-4.62004
-4.60353
-4.58876
-4.5753
-4.56336
-4.55277
-4.54318
-4.53445
-4.5259
-4.51665
-4.50649
-4.49603
-4.48563
-4.47548
-4.46593
-4.45716
-4.44952
-4.44367
-4.43987
-4.4381
-26.5495
-26.5391
-26.4954
-26.3673
-26.0683
-25.4749
-24.4516
-22.9324
-21.0407
-19.0743
-17.1879
-15.4364
-13.8883
-12.5261
-11.3101
-10.2508
-9.32887
-8.53743
-7.91756
-7.45564
-7.09179
-6.7811
-6.51812
-6.29256
-6.0952
-5.93164
-5.7972
-5.6841
-5.59145
-5.50809
-5.41811
-5.31759
-5.21828
-5.12505
-5.03843
-4.96201
-4.89406
-4.83178
-4.77648
-4.72732
-4.68443
-4.65165
-4.62845
-4.61067
-4.59511
-4.58149
-4.56913
-4.55754
-4.5474
-4.53851
-4.53043
-4.52327
-4.51616
-4.50776
-4.4978
-4.48738
-4.47694
-4.46657
-4.45674
-4.44758
-4.43941
-4.43324
-4.42935
-4.4276
-26.9772
-26.9939
-27.0038
-26.9519
-26.7387
-26.2087
-25.1704
-23.5022
-21.3552
-19.18
-17.1439
-15.2683
-13.656
-12.2604
-11.0078
-9.93217
-8.99737
-8.18506
-7.57762
-7.1581
-6.83612
-6.55144
-6.31302
-6.10915
-5.92638
-5.78027
-5.66429
-5.56713
-5.49375
-5.42972
-5.35105
-5.25241
-5.15528
-5.0652
-4.9806
-4.90823
-4.8447
-4.78507
-4.73278
-4.68596
-4.64411
-4.6144
-4.59622
-4.58313
-4.57082
-4.56007
-4.55013
-4.54019
-4.5318
-4.52463
-4.51798
-4.5125
-4.50702
-4.49949
-4.4895
-4.47903
-4.46853
-4.45785
-4.44775
-4.43815
-4.42929
-4.42272
-4.41879
-4.41712
-27.3833
-27.4302
-27.5012
-27.5402
-27.4369
-27.002
-25.9712
-24.1331
-21.6612
-19.2562
-17.0729
-15.0601
-13.3946
-11.9803
-10.6866
-9.602
-8.65809
-7.81113
-7.21862
-6.85585
-6.58475
-6.32339
-6.11056
-5.92985
-5.75826
-5.63
-5.53371
-5.45093
-5.39857
-5.35733
-5.29043
-5.18974
-5.0937
-5.00691
-4.92304
-4.85515
-4.79671
-4.739
-4.68994
-4.64543
-4.60329
-4.57663
-4.56439
-4.55658
-4.54723
-4.53938
-4.53188
-4.52326
-4.51659
-4.51119
-4.5058
-4.50212
-4.49857
-4.49194
-4.48158
-4.47097
-4.46045
-4.44934
-4.43898
-4.42893
-4.41912
-4.41211
-4.40822
-4.40671
-27.764
-27.8436
-27.9823
-28.1263
-28.1595
-27.8589
-26.8698
-24.8408
-21.9432
-19.2927
-16.9767
-14.8038
-13.1032
-11.6924
-10.3451
-9.26293
-8.31743
-7.41161
-6.83743
-6.55156
-6.34259
-6.09724
-5.91159
-5.75678
-5.5903
-5.48097
-5.40652
-5.33475
-5.30565
-5.29224
-5.23792
-5.129
-5.03322
-4.9506
-4.8653
-4.80275
-4.75061
-4.69346
-4.64813
-4.6062
-4.56163
-4.53807
-4.53316
-4.53136
-4.52435
-4.51945
-4.51454
-4.50667
-4.50177
-4.49826
-4.49379
-4.49211
-4.49093
-4.48527
-4.47397
-4.46319
-4.45274
-4.44101
-4.43048
-4.41998
-4.40888
-4.40135
-4.39765
-4.3964
-28.1161
-28.2301
-28.4417
-28.7038
-28.901
-28.7822
-27.8856
-25.6479
-22.1763
-19.2773
-16.8629
-14.4878
-12.7808
-11.4071
-9.97858
-8.91795
-7.98535
-6.97964
-6.42946
-6.24881
-6.11628
-5.87195
-5.71659
-5.59288
-5.42103
-5.33312
-5.28436
-5.21719
-5.21439
-5.23607
-5.19583
-5.06889
-4.97335
-4.89707
-4.8066
-4.75101
-4.70719
-4.64807
-4.60757
-4.569
-4.51857
-4.49832
-4.50273
-4.50794
-4.50208
-4.50033
-4.49832
-4.49028
-4.48732
-4.48596
-4.48182
-4.48238
-4.48422
-4.47966
-4.46654
-4.45562
-4.44548
-4.43279
-4.42227
-4.41144
-4.39848
-4.3904
-4.38709
-4.38626
-28.4372
-28.5862
-28.8742
-29.2651
-29.654
-29.7725
-29.0416
-26.5892
-22.3211
-19.1961
-16.7482
-14.0938
-12.4266
-11.1414
-9.57755
-8.57026
-7.67742
-6.50393
-5.98842
-5.95246
-5.915
-5.64426
-5.52567
-5.44261
-5.24759
-5.18627
-5.16995
-5.09587
-5.12369
-5.19077
-5.16739
-5.00707
-4.91338
-4.84772
-4.74561
-4.69982
-4.66767
-4.60203
-4.56843
-4.53494
-4.47317
-4.45684
-4.47344
-4.48698
-4.48015
-4.482
-4.48354
-4.47383
-4.47319
-4.4745
-4.46964
-4.47283
-4.47859
-4.47539
-4.45905
-4.44819
-4.4388
-4.42454
-4.41438
-4.40347
-4.38778
-4.37916
-4.37658
-4.37635
-28.7254
-28.9093
-29.2748
-29.8023
-30.4084
-30.8268
-30.3636
-27.7171
-22.317
-19.0333
-16.6636
-13.5932
-12.0395
-10.9217
-9.12426
-8.2232
-7.41767
-5.9664
-5.50628
-5.66903
-5.75157
-5.40744
-5.33857
-5.31279
-5.06493
-5.0401
-5.06763
-4.96701
-5.03196
-5.15873
-5.15728
-4.93957
-4.85244
-4.80498
-4.68016
-4.64907
-4.63397
-4.55392
-4.53089
-4.50581
-4.42397
-4.41294
-4.44571
-4.46939
-4.458
-4.46442
-4.47074
-4.45689
-4.45935
-4.46422
-4.45691
-4.46328
-4.47426
-4.47286
-4.45112
-4.44082
-4.43293
-4.41606
-4.40684
-4.39634
-4.37659
-4.36755
-4.36614
-4.36675
-28.9798
-29.1974
-29.6394
-30.3071
-31.1518
-31.9371
-31.8793
-29.1114
-22.0713
-18.7726
-16.6622
-12.9406
-11.6191
-10.7889
-8.58815
-7.88017
-7.24277
-5.33868
-4.97348
-5.40698
-5.644
-5.14948
-5.15461
-5.21392
-4.86467
-4.8942
-4.98432
-4.82476
-4.93709
-5.14275
-5.17231
-4.86004
-4.78953
-4.77284
-4.60676
-4.59861
-4.60908
-4.50131
-4.49515
-4.48434
-4.36873
-4.36583
-4.42014
-4.45649
-4.43471
-4.44754
-4.46071
-4.43873
-4.44574
-4.45568
-4.44308
-4.45353
-4.47144
-4.47269
-4.44215
-4.4334
-4.42826
-4.40698
-4.39968
-4.39049
-4.36457
-4.35546
-4.35583
-4.35756
-29.2002
-29.4492
-29.9643
-30.7714
-31.8693
-33.0882
-33.6142
-30.8924
-21.4451
-18.3981
-16.8285
-12.0651
-11.1652
-10.8048
-7.91925
-7.54456
-7.20771
-4.57711
-4.37986
-5.17679
-5.61762
-4.85054
-4.97294
-5.162
-4.63348
-4.74823
-4.93064
-4.6602
-4.83651
-5.14591
-5.22243
-4.75867
-4.72364
-4.75763
-4.51997
-4.54832
-4.59756
-4.44032
-4.46137
-4.47468
-4.30402
-4.31469
-4.3975
-4.45017
-4.40875
-4.43128
-4.45472
-4.41826
-4.43235
-4.4498
-4.42736
-4.44336
-4.47042
-4.47577
-4.43121
-4.42585
-4.4254
-4.39677
-4.39296
-4.38655
-4.35125
-4.3428
-4.34575
-4.3489
-29.3868
-29.6644
-30.2468
-31.1874
-32.5442
-34.2565
-35.5864
-33.2398
-20.2339
-17.8976
-17.2923
-10.8579
-10.6789
-11.0614
-7.03934
-7.21986
-7.39338
-3.61569
-3.71638
-4.99071
-5.708
-4.4796
-4.79274
-5.18093
-4.35081
-4.60207
-4.92255
-4.46003
-4.72749
-5.1713
-5.32208
-4.62069
-4.65393
-4.769
-4.41148
-4.49817
-4.60623
-4.36489
-4.42977
-4.48299
-4.22472
-4.25879
-4.37867
-4.45309
-4.37777
-4.41559
-4.45467
-4.3938
-4.41916
-4.44794
-4.40859
-4.43251
-4.47149
-4.48346
-4.41695
-4.4181
-4.42531
-4.38457
-4.38673
-4.38549
-4.33588
-4.32954
-4.33604
-4.3409
-29.5408
-29.8432
-30.4854
-31.5488
-33.1586
-35.4084
-37.7971
-36.4184
-18.1419
-17.2663
-18.2453
-9.15578
-10.1643
-11.6919
-5.83013
-6.90986
-7.91658
-2.35659
-2.97833
-4.86162
-5.96485
-3.99005
-4.61377
-5.30561
-3.98586
-4.45614
-4.98328
-4.20467
-4.6077
-5.22137
-5.49201
-4.42446
-4.58003
-4.82118
-4.26884
-4.44829
-4.64508
-4.26595
-4.40054
-4.51817
-4.12326
-4.19774
-4.36464
-4.46898
-4.33822
-4.40045
-4.46335
-4.36285
-4.40622
-4.4521
-4.38509
-4.42079
-4.47486
-4.49766
-4.39738
-4.41014
-4.42939
-4.36913
-4.38106
-4.38867
-4.31737
-4.3157
-4.32687
-4.33367
-29.6636
-29.9867
-30.6797
-31.8503
-33.6949
-36.4998
-40.2162
-40.8117
-14.7479
-16.5125
-19.9621
-6.71939
-9.62999
-12.8863
-4.11814
-6.61918
-8.94258
-0.657364
-2.17049
-4.8009
-6.45709
-3.31397
-4.43708
-5.5859
-3.49358
-4.31195
-5.14589
-3.86586
-4.47615
-5.29695
-5.76176
-4.13891
-4.50243
-4.9346
-4.07386
-4.39919
-4.72835
-4.13023
-4.37397
-4.59286
-3.98865
-4.13188
-4.35626
-4.50302
-4.28497
-4.38594
-4.48475
-4.32174
-4.39365
-4.46513
-4.3544
-4.40811
-4.48063
-4.52111
-4.36963
-4.40201
-4.43967
-4.34859
-4.37598
-4.39804
-4.29411
-4.30145
-4.31846
-4.32733
-29.7572
-30.0967
-30.8301
-32.089
-34.1372
-37.4776
-42.7625
-46.9662
-9.46386
-15.6664
-22.8257
-3.20633
-9.09304
-14.9091
-1.65576
-6.35414
-10.7007
1.68539
-1.31478
-4.81467
-7.27957
-2.35511
-4.26611
-6.09134
-2.8097
-4.17283
-5.45622
-3.40341
-4.33475
-5.39562
-6.17272
-3.72039
-4.42311
-5.13776
-3.80056
-4.35193
-4.87592
-3.93882
-4.3504
-4.72459
-3.8052
-4.06288
-4.35399
-4.56233
-4.21072
-4.37222
-4.52441
-4.26525
-4.38168
-4.49096
-4.31303
-4.3946
-4.48853
-4.55763
-4.32964
-4.39386
-4.45895
-4.3203
-4.37155
-4.41624
-4.26373
-4.28714
-4.31102
-4.32192
-29.8237
-30.1751
-30.9386
-32.2639
-34.4733
-38.2827
-45.275
-55.6464
-1.48206
-14.7909
-27.3581
1.8621
-8.58348
-18.121
1.90158
-6.12416
-13.5032
4.95674
-0.461245
-4.89793
-8.56142
-0.980265
-4.10817
-6.91686
-1.84454
-4.04496
-5.97652
-2.7612
-4.19052
-5.50934
-6.78215
-3.10877
-4.3463
-5.46948
-3.41267
-4.30849
-5.11492
-3.66541
-4.33033
-4.93722
-3.55086
-3.99449
-4.35739
-4.65656
-4.10531
-4.35969
-4.58987
-4.18604
-4.37067
-4.53487
-4.25604
-4.38081
-4.49776
-4.61243
-4.2718
-4.38596
-4.49101
-4.2805
-4.36771
-4.44684
-4.22285
-4.2734
-4.30472
-4.31742
-29.8656
-30.2247
-31.0075
-32.3766
-34.696
-38.8575
-47.4767
-67.9028
10.2869
-13.9963
-34.2534
9.14011
-8.15082
-23.0045
7.02244
-5.94367
-17.7671
9.54868
0.297168
-5.02594
-10.4766
0.990885
-3.97632
-8.18929
-0.475744
-3.93884
-6.78945
-1.86226
-4.05882
-5.62127
-7.66803
-2.22274
-4.27952
-5.98147
-2.86061
-4.27221
-5.48159
-3.27421
-4.31453
-5.26258
-3.19531
-3.9337
-4.36446
-4.79864
-3.95497
-4.349
-4.69115
-4.07405
-4.3612
-4.60384
-4.17664
-4.36788
-4.5066
-4.69257
-4.18842
-4.37878
-4.54083
-4.22401
-4.36436
-4.49449
-4.16674
-4.26125
-4.29962
-4.31368
-29.8854
-30.2481
-31.0402
-32.4307
-34.8049
-39.1565
-48.9278
-85.1524
27.2876
-13.459
-44.4166
19.5023
-7.87253
-30.1913
14.3299
-5.83496
-24.0395
15.99
0.804999
-5.1428
-13.2569
3.79729
-3.89221
-10.0749
1.45982
-3.87145
-8.00303
-0.603224
-3.96785
-5.70178
-8.93529
-0.954782
-4.23534
-6.74152
-2.07857
-4.24876
-6.02383
-2.71801
-4.30458
-5.7428
-2.69799
-3.89258
-4.37114
-5.00616
-3.74179
-4.34166
-4.84179
-3.91624
-4.35461
-4.70734
-4.06601
-4.3584
-4.51244
-4.80789
-4.06974
-4.37346
-4.6153
-4.14433
-4.3617
-4.56573
-4.08938
-4.25276
-4.29607
-4.3109
)
;

boundaryField
{
    left
    {
        type            calculated;
        value           nonuniform List<scalar> 
32
(
-20.868
-20.9415
-21.0812
-21.2793
-21.529
-21.8243
-22.1595
-22.5292
-22.9283
-23.3516
-23.7938
-24.2498
-24.7142
-25.1816
-25.6468
-26.1044
-26.5495
-26.9772
-27.3833
-27.764
-28.1161
-28.4372
-28.7254
-28.9798
-29.2002
-29.3868
-29.5408
-29.6636
-29.7572
-29.8237
-29.8656
-29.8854
)
;
    }
    right
    {
        type            calculated;
        value           nonuniform List<scalar> 
32
(
-4.55335
-4.55166
-4.54847
-4.54398
-4.53837
-4.53181
-4.52443
-4.51637
-4.50772
-4.49861
-4.48909
-4.47927
-4.4692
-4.45894
-4.44856
-4.4381
-4.4276
-4.41712
-4.40671
-4.3964
-4.38626
-4.37635
-4.36675
-4.35756
-4.3489
-4.3409
-4.33367
-4.32733
-4.32192
-4.31742
-4.31368
-4.3109
)
;
    }
    interface
    {
        type            calculated;
        value           nonuniform List<scalar> 
64
(
-29.89
-30.2537
-31.048
-32.4437
-34.8314
-39.2325
-49.3989
-95.2283
37.3011
-13.2814
-50.4425
25.5791
-7.78372
-34.4497
18.6188
-5.80193
-27.7552
19.7487
0.972238
-5.1891
-14.8963
5.44321
-3.86543
-11.1946
2.5925
-3.85006
-8.72524
0.131066
-3.93706
-5.72956
-9.67929
-0.210088
-4.22085
-7.19315
-1.62071
-4.24115
-6.34564
-2.39199
-4.30134
-6.02763
-2.40813
-3.87885
-4.37374
-5.12883
-3.61699
-4.33909
-4.9314
-3.82407
-4.35228
-4.76911
-4.00168
-4.35497
-4.51425
-4.87579
-4.00022
-4.37149
-4.65972
-4.09782
-4.36062
-4.60821
-4.04458
-4.24978
-4.29476
-4.30982
)
;
    }
    bottom
    {
        type            calculated;
        value           nonuniform List<scalar> 
64
(
-20.8488
-20.758
-20.5776
-20.3097
-19.9579
-19.5271
-19.0241
-18.457
-17.8356
-17.1705
-16.4732
-15.7555
-15.0287
-14.3034
-13.5891
-12.894
-12.2247
-11.5865
-10.9831
-10.417
-9.88919
-9.40001
-8.94879
-8.53427
-8.15473
-7.80811
-7.4922
-7.20468
-6.94326
-6.70571
-6.48991
-6.29391
-6.11589
-5.95426
-5.80753
-5.67442
-5.55375
-5.44447
-5.34561
-5.25631
-5.17577
-5.10322
-5.03798
-4.97937
-4.92679
-4.87967
-4.83746
-4.79968
-4.76587
-4.73563
-4.70859
-4.68444
-4.66289
-4.64372
-4.62671
-4.6117
-4.59858
-4.58724
-4.5776
-4.56963
-4.56328
-4.55853
-4.55537
-4.55379
)
;
    }
    defaultFaces
    {
        type            empty;
    }
}


// ************************************************************************* //
