/*--------------------------------*- C++ -*----------------------------------*\
| =========                 |                                                 |
| \\      /  F ield         | OpenFOAM: The Open Source CFD Toolbox           |
|  \\    /   O peration     | Version:  5.x                                   |
|   \\  /    A nd           | Web:      www.OpenFOAM.org                      |
|    \\/     M anipulation  |                                                 |
\*---------------------------------------------------------------------------*/
FoamFile
{
    version     2.0;
    format      ascii;
    class       volScalarField;
    location    "5.4";
    object      gradTy;
}
// * * * * * * * * * * * * * * * * * * * * * * * * * * * * * * * * * * * * * //

dimensions      [0 -1 0 1 0 0 0];

internalField   nonuniform List<scalar> 
2048
(
-20.3029
-20.2074
-20.0174
-19.7352
-19.3642
-18.9096
-18.378
-17.7779
-17.1193
-16.4132
-15.6716
-14.9067
-14.1302
-13.3535
-12.5864
-11.8376
-11.1142
-10.422
-9.76488
-9.1457
-8.56592
-8.02595
-7.52536
-7.06304
-6.63738
-6.24645
-5.88809
-5.56006
-5.26009
-4.986
-4.73566
-4.50715
-4.29866
-4.10856
-3.9354
-3.77783
-3.63465
-3.50476
-3.38715
-3.28085
-3.18498
-3.09868
-3.02114
-2.95159
-2.88929
-2.83355
-2.78372
-2.73918
-2.69938
-2.66383
-2.63206
-2.60369
-2.57837
-2.55583
-2.53581
-2.51814
-2.50266
-2.48927
-2.47789
-2.46846
-2.46094
-2.45532
-2.45157
-2.4497
-20.3802
-20.2838
-20.092
-19.8069
-19.4319
-18.9718
-18.4334
-17.8253
-17.1576
-16.4419
-15.6905
-14.9159
-14.1305
-13.3456
-12.5715
-11.8169
-11.089
-10.3934
-9.73416
-9.11378
-8.53366
-7.99404
-7.49434
-7.03331
-6.60922
-6.22002
-5.86348
-5.53728
-5.2391
-4.96669
-4.71794
-4.49087
-4.28369
-4.09479
-3.92269
-3.7661
-3.62381
-3.49475
-3.3779
-3.27233
-3.17714
-3.0915
-3.01458
-2.94563
-2.8839
-2.82868
-2.77934
-2.73525
-2.69586
-2.66067
-2.62922
-2.60113
-2.57604
-2.55369
-2.53383
-2.51627
-2.50089
-2.48756
-2.47622
-2.46682
-2.45932
-2.45371
-2.44997
-2.4481
-20.527
-20.4291
-20.234
-19.9436
-19.5609
-19.0905
-18.5392
-17.9157
-17.2306
-16.4963
-15.726
-14.933
-14.1303
-13.33
-12.5425
-11.777
-11.0405
-10.3387
-9.6753
-9.05276
-8.47209
-7.93326
-7.43536
-6.97687
-6.55582
-6.16997
-5.81692
-5.49421
-5.19943
-4.93025
-4.68449
-4.46016
-4.25547
-4.0688
-3.89873
-3.74396
-3.60335
-3.47584
-3.36044
-3.25623
-3.16234
-3.07794
-3.00221
-2.93438
-2.87371
-2.8195
-2.77109
-2.72785
-2.68923
-2.65473
-2.62388
-2.59631
-2.57166
-2.54967
-2.53009
-2.51276
-2.49754
-2.48434
-2.47308
-2.46373
-2.45626
-2.45067
-2.44694
-2.44508
-20.7351
-20.6351
-20.4357
-20.1381
-19.7448
-19.26
-18.6902
-18.0446
-17.3345
-16.5733
-15.7756
-14.956
-14.1285
-13.3061
-12.4997
-11.7186
-10.9701
-10.2597
-9.59074
-8.9654
-8.38424
-7.84676
-7.35163
-6.89692
-6.48034
-6.09934
-5.75132
-5.43363
-5.1437
-4.87911
-4.6376
-4.41714
-4.21593
-4.03239
-3.86513
-3.71292
-3.57465
-3.4493
-3.33592
-3.23362
-3.14155
-3.05888
-2.98482
-2.91858
-2.85942
-2.80663
-2.75953
-2.71749
-2.67997
-2.64643
-2.61644
-2.58959
-2.56556
-2.54407
-2.52489
-2.50787
-2.49287
-2.47983
-2.46868
-2.45939
-2.45197
-2.44639
-2.44267
-2.44082
-20.9973
-20.8951
-20.6908
-20.3847
-19.9785
-19.4758
-18.8826
-18.2086
-17.4661
-16.6701
-15.8369
-14.9829
-14.1237
-13.273
-12.4427
-11.6422
-10.8788
-10.1578
-9.4823
-8.85388
-8.27255
-7.73721
-7.24594
-6.7963
-6.38557
-6.01088
-5.66933
-5.35806
-5.07432
-4.81553
-4.57936
-4.36374
-4.16686
-3.98719
-3.82341
-3.67434
-3.53895
-3.41626
-3.30538
-3.20544
-3.11563
-3.03514
-2.96316
-2.89892
-2.84166
-2.79064
-2.74519
-2.70467
-2.6685
-2.63618
-2.60725
-2.58132
-2.55805
-2.53717
-2.51849
-2.50183
-2.4871
-2.47424
-2.46321
-2.454
-2.44661
-2.44106
-2.43735
-2.4355
-21.3073
-21.2028
-20.9934
-20.6784
-20.2579
-19.7343
-19.1134
-18.4049
-17.6228
-16.7841
-15.9075
-15.0117
-14.1141
-13.2297
-12.371
-11.5476
-10.767
-10.034
-9.35137
-8.71998
-8.13912
-7.60692
-7.12074
-6.67752
-6.27405
-5.90706
-5.57334
-5.26979
-4.99345
-4.74158
-4.51171
-4.30175
-4.1099
-3.9347
-3.77492
-3.62947
-3.49738
-3.37776
-3.26976
-3.17257
-3.08539
-3.00743
-2.9379
-2.87601
-2.82098
-2.77206
-2.72855
-2.68981
-2.65525
-2.62435
-2.59666
-2.57179
-2.5494
-2.52925
-2.51111
-2.49487
-2.48044
-2.46778
-2.45687
-2.44773
-2.44037
-2.43483
-2.43112
-2.42927
-21.6589
-21.5526
-21.3387
-21.0149
-20.5795
-20.033
-19.3803
-18.6316
-17.8026
-16.9131
-15.9852
-15.0403
-14.098
-13.1748
-12.2837
-11.4347
-10.6349
-9.889
-9.19904
-8.56518
-7.98576
-7.45795
-6.97824
-6.54286
-6.14804
-5.79011
-5.46553
-5.17093
-4.90312
-4.65914
-4.43643
-4.23281
-4.04656
-3.87629
-3.7209
-3.57942
-3.45097
-3.33474
-3.22993
-3.13578
-3.05153
-2.97641
-2.90964
-2.85041
-2.79791
-2.75136
-2.71005
-2.67332
-2.64056
-2.61127
-2.58498
-2.5613
-2.5399
-2.52053
-2.503
-2.4872
-2.47307
-2.4606
-2.4498
-2.44072
-2.43338
-2.42784
-2.42413
-2.42227
-22.0465
-21.9392
-21.7221
-21.3907
-20.9406
-20.3699
-19.682
-18.8872
-18.0037
-17.0551
-16.0676
-15.0664
-14.0734
-13.1067
-12.1798
-11.3029
-10.4826
-9.72326
-9.02625
-8.3908
-7.81413
-7.2922
-6.82049
-6.39442
-6.00965
-5.66208
-5.34788
-5.06338
-4.80513
-4.56997
-4.35513
-4.15842
-3.97818
-3.81318
-3.66245
-3.52518
-3.40061
-3.288
-3.18661
-3.09574
-3.01466
-2.94265
-2.8789
-2.8226
-2.7729
-2.72898
-2.69009
-2.65556
-2.62478
-2.59725
-2.57248
-2.5501
-2.52976
-2.51124
-2.49434
-2.47899
-2.46516
-2.45287
-2.44216
-2.43311
-2.42577
-2.42022
-2.41649
-2.41463
-22.4646
-22.3575
-22.1392
-21.8025
-21.3392
-20.7439
-20.0176
-19.1708
-18.2247
-17.2081
-16.1526
-15.0877
-14.0384
-13.024
-12.0585
-11.1517
-10.3101
-9.53719
-8.8338
-8.19805
-7.62575
-7.11145
-6.6494
-6.23416
-5.8608
-5.52485
-5.22218
-4.94886
-4.70116
-4.47563
-4.26931
-4.07994
-3.90599
-3.74644
-3.60054
-3.46764
-3.34711
-3.23828
-3.14048
-3.05305
-2.97534
-2.90664
-2.84616
-2.79304
-2.74636
-2.70528
-2.66901
-2.63685
-2.60821
-2.58255
-2.55942
-2.53842
-2.51922
-2.50157
-2.48532
-2.47041
-2.45686
-2.44471
-2.43407
-2.42502
-2.41766
-2.41207
-2.40831
-2.40644
-22.9078
-22.8025
-22.586
-22.2474
-21.7737
-21.1545
-20.3871
-19.482
-18.4645
-17.3702
-16.2377
-15.1019
-13.9909
-12.9252
-11.9188
-10.9809
-10.1174
-9.33114
-8.6224
-7.98805
-7.42214
-6.91744
-6.46682
-6.06393
-5.70327
-5.3801
-5.09004
-4.82892
-4.59271
-4.37758
-4.18032
-3.9986
-3.83108
-3.67704
-3.53601
-3.40756
-3.29116
-3.18622
-3.09211
-3.00825
-2.93403
-2.86882
-2.81182
-2.7621
-2.71867
-2.68062
-2.64713
-2.61748
-2.59109
-2.56742
-2.54601
-2.52647
-2.50845
-2.49171
-2.4761
-2.46161
-2.44829
-2.43626
-2.42563
-2.41655
-2.40913
-2.40349
-2.39968
-2.39779
-23.3705
-23.2693
-23.0584
-22.7227
-22.243
-21.6018
-20.7912
-19.8212
-18.7221
-17.5394
-16.3203
-15.1063
-13.9287
-12.8088
-11.7598
-10.7901
-9.90449
-9.10547
-8.39275
-7.76191
-7.20477
-6.71187
-6.27453
-5.88547
-5.53873
-5.22938
-4.95293
-4.70497
-4.48114
-4.27716
-4.08941
-3.91549
-3.7544
-3.60581
-3.46961
-3.3456
-3.23337
-3.13236
-3.04201
-2.96178
-2.89115
-2.82957
-2.77623
-2.73013
-2.69015
-2.6553
-2.62473
-2.59771
-2.57366
-2.55206
-2.53245
-2.51443
-2.49764
-2.4818
-2.46682
-2.4527
-2.43958
-2.4276
-2.41695
-2.40779
-2.40027
-2.39455
-2.39069
-2.38878
-23.8474
-23.7527
-23.5524
-23.226
-22.7463
-22.0866
-21.2315
-20.189
-18.9968
-17.7134
-16.3978
-15.0982
-13.8498
-12.6735
-11.5811
-10.5792
-9.67166
-8.86049
-8.14545
-7.52072
-6.97516
-6.49646
-6.07428
-5.70046
-5.36868
-5.07408
-4.81214
-4.57823
-4.36767
-4.17559
-3.99773
-3.83163
-3.67678
-3.53345
-3.40193
-3.28231
-3.17426
-3.07721
-2.99063
-2.91405
-2.84704
-2.78919
-2.73971
-2.69743
-2.66108
-2.62959
-2.60205
-2.57775
-2.55611
-2.53664
-2.5189
-2.50245
-2.48692
-2.472
-2.4576
-2.44381
-2.43081
-2.41883
-2.40809
-2.39881
-2.39116
-2.38533
-2.3814
-2.37947
-24.3327
-24.2477
-24.0639
-23.7545
-23.2831
-22.6106
-21.7103
-20.5869
-19.2877
-17.8898
-16.4669
-15.0748
-13.752
-12.5184
-11.3821
-10.3484
-9.41924
-8.59651
-7.88105
-7.26558
-6.73488
-6.27294
-5.86779
-5.5105
-5.19453
-4.91544
-4.66878
-4.44977
-4.25341
-4.07401
-3.90637
-3.74791
-3.59895
-3.46055
-3.33348
-3.21816
-3.11428
-3.02118
-2.93837
-2.86539
-2.80198
-2.74795
-2.70251
-2.66427
-2.63174
-2.60374
-2.57932
-2.55779
-2.53861
-2.52133
-2.50549
-2.49067
-2.47643
-2.46242
-2.44855
-2.43501
-2.42207
-2.41002
-2.39913
-2.38967
-2.38184
-2.37588
-2.37187
-2.36992
-24.821
-24.749
-24.5885
-24.3059
-23.8532
-23.1759
-22.2311
-21.0169
-19.5937
-18.0656
-16.5243
-15.0329
-13.6335
-12.3425
-11.163
-10.0981
-9.14777
-8.31377
-7.59995
-6.99762
-6.48564
-6.0431
-5.65675
-5.3171
-5.01752
-4.75451
-4.52384
-4.32047
-4.13929
-3.97349
-3.81634
-3.66511
-3.52149
-3.38759
-3.26466
-3.15354
-3.05383
-2.96465
-2.88555
-2.8161
-2.75619
-2.70603
-2.66486
-2.63091
-2.60236
-2.57795
-2.55672
-2.53799
-2.5213
-2.50623
-2.49233
-2.47919
-2.46629
-2.45317
-2.43976
-2.42638
-2.41342
-2.40122
-2.39012
-2.38042
-2.37236
-2.36624
-2.36215
-2.36019
-25.3066
-25.2515
-25.1218
-24.877
-24.4564
-23.7854
-22.7985
-21.4821
-19.9134
-18.2372
-16.5664
-14.9692
-13.4921
-12.1455
-10.9238
-9.82908
-8.85811
-8.01235
-7.30232
-6.71801
-6.22929
-5.80872
-5.44283
-5.12175
-4.83877
-4.59222
-4.37814
-4.19104
-4.02614
-3.87507
-3.72867
-3.58391
-3.44486
-3.31494
-3.19576
-3.08874
-2.99326
-2.90794
-2.83251
-2.76646
-2.70985
-2.66358
-2.62694
-2.59756
-2.57314
-2.55242
-2.53443
-2.51848
-2.50428
-2.49144
-2.47951
-2.46811
-2.45661
-2.44437
-2.4313
-2.41799
-2.40491
-2.39248
-2.38111
-2.37111
-2.36275
-2.35646
-2.35228
-2.35034
-25.7841
-25.7497
-25.659
-25.4648
-25.0924
-24.4427
-23.4188
-21.9863
-20.2445
-18.4002
-16.5895
-14.8799
-13.3262
-11.9275
-10.665
-9.5426
-8.55151
-7.69205
-6.98803
-6.42799
-5.96798
-5.57162
-5.22761
-4.9259
-4.65918
-4.42931
-4.23239
-4.062
-3.91462
-3.7798
-3.64439
-3.50487
-3.36939
-3.24289
-3.12695
-3.02402
-2.93289
-2.85134
-2.77952
-2.71672
-2.66305
-2.62067
-2.58893
-2.56446
-2.54429
-2.52732
-2.51258
-2.49937
-2.48765
-2.47705
-2.46708
-2.4575
-2.44749
-2.4361
-2.42324
-2.40986
-2.39659
-2.38383
-2.37213
-2.36179
-2.35306
-2.34655
-2.34232
-2.34042
-26.2483
-26.2384
-26.1951
-26.0655
-25.7604
-25.1519
-24.0999
-22.5352
-20.5833
-18.5489
-16.5897
-14.7611
-13.134
-11.6897
-10.3873
-9.24023
-8.22983
-7.35221
-6.65639
-6.12901
-5.70428
-5.33353
-5.01261
-4.73099
-4.47944
-4.26637
-4.08724
-3.9336
-3.80524
-3.68876
-3.56462
-3.42837
-3.29524
-3.17168
-3.05832
-2.95954
-2.87304
-2.79507
-2.72687
-2.66714
-2.61582
-2.57731
-2.55097
-2.53183
-2.51598
-2.50279
-2.49132
-2.48074
-2.47148
-2.46312
-2.45509
-2.44741
-2.43903
-2.42848
-2.41561
-2.40204
-2.38849
-2.3753
-2.36322
-2.35249
-2.34329
-2.33654
-2.33229
-2.33047
-26.6943
-26.7125
-26.725
-26.6747
-26.4591
-25.9176
-24.8522
-23.1363
-20.9238
-18.6765
-16.5642
-14.6077
-12.9143
-11.4342
-10.0911
-8.92404
-7.89591
-6.99136
-6.30603
-5.82277
-5.44137
-5.09595
-4.79921
-4.53861
-4.29995
-4.10383
-3.94338
-3.80581
-3.69826
-3.60316
-3.49067
-3.35456
-3.22242
-3.10153
-2.98978
-2.89543
-2.81409
-2.7393
-2.67481
-2.61803
-2.56811
-2.53341
-2.51321
-2.49995
-2.48834
-2.47897
-2.47079
-2.46263
-2.4558
-2.44971
-2.44352
-2.43787
-2.43135
-2.42162
-2.40843
-2.39452
-2.38066
-2.36689
-2.35441
-2.34327
-2.33345
-2.32643
-2.32223
-2.32056
-27.1175
-27.1671
-27.243
-27.2872
-27.1862
-26.7443
-25.6887
-23.8005
-21.256
-18.7744
-16.5116
-14.4137
-12.6656
-11.165
-9.77608
-8.59652
-7.55416
-6.60679
-5.93456
-5.51145
-5.18333
-4.85994
-4.58858
-4.35061
-4.12061
-3.94194
-3.80163
-3.67817
-3.5937
-3.52439
-3.42417
-3.28326
-3.15075
-3.03276
-2.92108
-2.83176
-2.7565
-2.68409
-2.6236
-2.5698
-2.51972
-2.48879
-2.47584
-2.46913
-2.46149
-2.45596
-2.45112
-2.44506
-2.44065
-2.43687
-2.43234
-2.42889
-2.42456
-2.41566
-2.40167
-2.38731
-2.37313
-2.35859
-2.34572
-2.33418
-2.32354
-2.31621
-2.31217
-2.31075
-27.5141
-27.5976
-27.7439
-27.8971
-27.9379
-27.636
-26.6257
-24.5435
-21.5637
-18.8321
-16.4341
-14.1707
-12.3869
-10.889
-9.44032
-8.26059
-7.21147
-6.19374
-5.5383
-5.19799
-4.93565
-4.62565
-4.38161
-4.16945
-3.94066
-3.78078
-3.66324
-3.54971
-3.49121
-3.4541
-3.36723
-3.21369
-3.07982
-2.96593
-2.85171
-2.76853
-2.70094
-2.62932
-2.57351
-2.52304
-2.47028
-2.44316
-2.43904
-2.43979
-2.43545
-2.43382
-2.4325
-2.42798
-2.42605
-2.42471
-2.42147
-2.42043
-2.41881
-2.41078
-2.39527
-2.38037
-2.36598
-2.35038
-2.3372
-2.32532
-2.31352
-2.30586
-2.30215
-2.3011
-27.8808
-27.9999
-28.2218
-28.4975
-28.7085
-28.5957
-27.6831
-25.3889
-21.8211
-18.8372
-16.3394
-13.8662
-12.0773
-10.6173
-9.0788
-7.91955
-6.87873
-5.74427
-5.11194
-4.88635
-4.70579
-4.39169
-4.17888
-3.99861
-3.75822
-3.62028
-3.53025
-3.4186
-3.38999
-3.39435
-3.32276
-3.14424
-3.009
-2.90203
-2.78071
-2.70572
-2.64837
-2.57458
-2.5248
-2.47865
-2.41915
-2.39607
-2.40312
-2.4125
-2.41014
-2.41261
-2.41517
-2.41126
-2.41199
-2.41337
-2.41075
-2.41244
-2.41427
-2.40725
-2.38906
-2.37366
-2.35932
-2.34215
-2.32885
-2.31683
-2.30334
-2.29534
-2.29222
-2.29169
-28.2151
-28.3706
-28.6716
-29.0808
-29.4904
-29.6239
-28.8843
-26.3722
-21.9879
-18.7754
-16.2449
-13.4812
-11.7359
-10.3678
-8.68105
-7.577
-6.57301
-5.24549
-4.64828
-4.58197
-4.50416
-4.15411
-3.98053
-3.84341
-3.56973
-3.46019
-3.40597
-3.28185
-3.2887
-3.34764
-3.2949
-3.07194
-2.9374
-2.84287
-2.70647
-2.64324
-2.60035
-2.51895
-2.47772
-2.43801
-2.36527
-2.3469
-2.36844
-2.388
-2.3853
-2.39232
-2.39949
-2.39466
-2.39848
-2.40308
-2.39992
-2.40479
-2.41117
-2.40541
-2.38277
-2.36711
-2.35336
-2.33377
-2.32072
-2.3089
-2.2929
-2.28459
-2.28241
-2.2826
-28.5152
-28.7068
-29.0881
-29.6387
-30.2732
-30.7174
-30.2561
-27.5474
-22.0011
-18.6306
-16.1831
-12.9852
-11.3619
-10.1686
-8.2277
-7.23671
-6.32077
-4.67691
-4.13811
-4.29217
-4.34533
-3.90487
-3.78626
-3.71201
-3.36894
-3.30015
-3.29581
-3.13469
-3.18532
-3.317
-3.28961
-2.9918
-2.86393
-2.7915
-2.62633
-2.58094
-2.55923
-2.46075
-2.43251
-2.40328
-2.30695
-2.29488
-2.33554
-2.36738
-2.36034
-2.37293
-2.38601
-2.37772
-2.38548
-2.39424
-2.38859
-2.3973
-2.40975
-2.40578
-2.3759
-2.36063
-2.3484
-2.32495
-2.31281
-2.30184
-2.28199
-2.27353
-2.27277
-2.27393
-28.78
-29.0065
-29.467
-30.1628
-31.0441
-31.8679
-31.8268
-28.9965
-21.7652
-18.3861
-16.209
-12.3305
-10.9546
-10.0633
-7.68546
-6.90255
-6.16251
-4.0065
-3.57055
-4.02645
-4.24989
-3.62979
-3.5954
-3.61706
-3.14557
-3.13969
-3.20835
-2.96973
-3.07721
-3.30599
-3.31555
-2.89577
-2.78733
-2.75297
-2.53601
-2.51867
-2.5287
-2.3971
-2.38942
-2.37774
-2.24155
-2.2391
-2.3051
-2.35214
-2.33427
-2.35435
-2.3756
-2.35971
-2.37295
-2.38745
-2.37613
-2.38974
-2.4103
-2.40913
-2.36769
-2.3541
-2.34498
-2.31523
-2.30514
-2.29611
-2.27029
-2.26207
-2.26338
-2.26576
-29.0093
-29.2685
-29.8045
-30.6445
-31.7877
-33.0598
-33.6226
-30.8434
-21.1368
-18.0257
-16.411
-11.4424
-10.5139
-10.1177
-7.00007
-6.5784
-6.159
-3.18518
-2.93395
-3.7966
-4.24691
-3.30555
-3.40701
-3.5778
-2.88327
-2.9784
-3.1568
-2.77576
-2.96111
-3.31851
-3.38536
-2.77143
-2.7063
-2.7352
-2.42876
-2.45625
-2.51431
-2.32329
-2.34866
-2.36635
-2.16503
-2.17858
-2.27799
-2.34437
-2.3054
-2.33648
-2.36954
-2.33947
-2.36086
-2.38367
-2.36164
-2.38181
-2.41314
-2.41658
-2.35695
-2.3474
-2.34388
-2.30391
-2.29773
-2.29239
-2.2573
-2.25011
-2.25431
-2.25819
-29.2036
-29.4923
-30.098
-31.0762
-32.4868
-34.2687
-35.6621
-33.2733
-19.905
-17.5368
-16.9243
-10.2062
-10.0411
-10.4299
-6.08673
-6.26811
-6.39981
-2.13897
-2.21788
-3.61626
-4.37731
-2.89582
-3.22017
-3.62301
-2.55689
-2.81613
-3.16098
-2.53604
-2.83357
-3.35845
-3.51734
-2.60006
-2.61977
-2.75024
-2.29425
-2.39361
-2.52438
-2.23202
-2.31041
-2.37641
-2.07127
-2.11244
-2.25523
-2.34704
-2.27111
-2.31921
-2.36979
-2.31521
-2.34917
-2.38436
-2.34375
-2.37315
-2.41855
-2.42974
-2.34191
-2.34043
-2.34632
-2.28985
-2.29057
-2.29168
-2.24223
-2.23756
-2.24566
-2.25131
-29.3639
-29.6784
-30.3459
-31.4509
-33.123
-35.46
-37.9466
-36.5588
-17.7642
-16.9144
-17.9488
-8.45025
-9.53995
-11.1422
-4.81739
-5.97567
-7.01436
-0.758357
-1.41671
-3.49973
-4.69842
-2.34606
-3.03456
-3.79477
-2.1288
-2.65336
-3.24979
-2.22603
-2.69158
-3.42887
-3.73783
-2.3542
-2.52723
-2.81591
-2.117
-2.33091
-2.57102
-2.11229
-2.27491
-2.41848
-1.95127
-2.0402
-2.23792
-2.36427
-2.22746
-2.30246
-2.37922
-2.28424
-2.33786
-2.39163
-2.3205
-2.36345
-2.42673
-2.45099
-2.31996
-2.33309
-2.3541
-2.27138
-2.28367
-2.29541
-2.22389
-2.22441
-2.23757
-2.2452
-29.4918
-29.8278
-30.5477
-31.7636
-33.6782
-36.5882
-40.4449
-41.095
-14.2801
-16.1668
-19.771
-5.92315
-9.01907
-12.4579
-3.00452
-5.70552
-8.18597
1.11577
-0.535306
-3.45938
-5.28999
-1.57697
-2.8512
-4.15323
-1.54403
-2.49181
-3.46437
-1.81025
-2.53383
-3.53074
-4.08426
-1.99443
-2.42932
-2.9577
-1.87438
-2.26878
-2.67152
-1.94802
-2.24244
-2.50757
-1.79193
-1.96227
-2.22706
-2.40179
-2.16871
-2.28624
-2.40194
-2.24269
-2.32698
-2.40853
-2.28908
-2.3525
-2.43765
-2.48371
-2.28738
-2.32539
-2.3698
-2.24608
-2.27708
-2.30559
-2.20054
-2.21077
-2.2302
-2.23993
-29.5892
-29.9422
-30.704
-32.011
-34.136
-37.5985
-43.0732
-47.4452
-8.84584
-15.3241
-22.7912
-2.26542
-8.49514
-14.6601
-0.380832
-5.46328
-10.1693
3.71042
0.402349
-3.50139
-6.26193
-0.476296
-2.67364
-4.78244
-0.724307
-2.33532
-3.86189
-1.23842
-2.36264
-3.66095
-4.6092
-1.46543
-2.32864
-3.21124
-1.53406
-2.20862
-2.85004
-1.71632
-2.21345
-2.66452
-1.57457
-1.88063
-2.22323
-2.46748
-2.08679
-2.27079
-2.44372
-2.18505
-2.3167
-2.43934
-2.24557
-2.34033
-2.45091
-2.5327
-2.23899
-2.31748
-2.39705
-2.21047
-2.27088
-2.32504
-2.16968
-2.19698
-2.22375
-2.23558
-29.6586
-30.024
-30.8166
-32.1925
-34.4837
-38.4303
-45.6658
-56.3973
-0.628408
-14.4497
-27.5544
3.02509
-7.99763
-18.1358
3.42526
-5.25678
-13.3112
7.34339
1.34091
-3.619
-7.76423
1.11106
-2.50952
-5.79733
0.439421
-2.1911
-4.52005
-0.440417
-2.18683
-3.80933
-5.38539
-0.691023
-2.23079
-3.62513
-1.05099
-2.15316
-3.13961
-1.38542
-2.18873
-2.9178
-1.27308
-1.79987
-2.22614
-2.57211
-1.97054
-2.25664
-2.51252
-2.10369
-2.30738
-2.48992
-2.18455
-2.32753
-2.46548
-2.60462
-2.16769
-2.30975
-2.44086
-2.1598
-2.26529
-2.35761
-2.12784
-2.18374
-2.21846
-2.23219
-29.7023
-30.0757
-30.8884
-32.3094
-34.7142
-39.024
-47.9372
-69.0342
11.4957
-13.6547
-34.7869
10.6341
-7.5751
-23.4026
8.91846
-5.09769
-18.0757
12.4514
2.17706
-3.78267
-9.99916
3.39485
-2.37269
-7.35169
2.09573
-2.07141
-5.54226
0.679817
-2.02574
-3.95467
-6.51202
0.431671
-2.14586
-4.26414
-0.36369
-2.10708
-3.58449
-0.912197
-2.16958
-3.30547
-0.851635
-1.72855
-2.23388
-2.73021
-1.80492
-2.2449
-2.619
-1.9883
-2.29971
-2.56815
-2.09866
-2.31551
-2.47935
-2.70866
-2.06398
-2.30296
-2.50797
-2.08762
-2.26068
-2.40846
-2.07025
-2.17233
-2.21459
-2.22983
-29.723
-30.1002
-30.9226
-32.3657
-34.8271
-39.3329
-49.434
-86.8164
29.0157
-13.1164
-45.4352
21.478
-7.30345
-31.1393
16.7694
-5.00372
-25.0717
19.6236
2.73783
-3.9267
-13.2363
6.653
-2.28581
-9.64721
4.4428
-1.99582
-7.06349
2.25148
-1.91463
-4.05936
-8.12229
2.039
-2.09025
-5.21287
0.60984
-2.07795
-4.24276
-0.239499
-2.1582
-3.87764
-0.262025
-1.68106
-2.24207
-2.96128
-1.57015
-2.23748
-2.77732
-1.82528
-2.29491
-2.68447
-1.97818
-2.30707
-2.48915
-2.8573
-1.91538
-2.2985
-2.60734
-1.98545
-2.25781
-2.4845
-1.99059
-2.16491
-2.21251
-2.22862
)
;

boundaryField
{
    left
    {
        type            calculated;
        value           nonuniform List<scalar> 
32
(
-20.3029
-20.3802
-20.527
-20.7351
-20.9973
-21.3073
-21.6589
-22.0465
-22.4646
-22.9078
-23.3705
-23.8474
-24.3327
-24.821
-25.3066
-25.7841
-26.2483
-26.6943
-27.1175
-27.5141
-27.8808
-28.2151
-28.5152
-28.78
-29.0093
-29.2036
-29.3639
-29.4918
-29.5892
-29.6586
-29.7023
-29.723
)
;
    }
    right
    {
        type            calculated;
        value           nonuniform List<scalar> 
32
(
-2.4497
-2.4481
-2.44508
-2.44082
-2.4355
-2.42927
-2.42227
-2.41463
-2.40644
-2.39779
-2.38878
-2.37947
-2.36992
-2.36019
-2.35034
-2.34042
-2.33047
-2.32056
-2.31075
-2.3011
-2.29169
-2.2826
-2.27393
-2.26576
-2.25819
-2.25131
-2.2452
-2.23993
-2.23558
-2.23219
-2.22983
-2.22862
)
;
    }
    interface
    {
        type            calculated;
        value           nonuniform List<scalar> 
64
(
-29.728
-30.1061
-30.9308
-32.3792
-34.8546
-39.4115
-49.9198
-97.2029
39.3363
-12.9385
-51.7467
27.8392
-7.21683
-35.721
21.3796
-4.97568
-29.2137
23.81
2.92264
-3.98286
-15.1438
8.56512
-2.25833
-11.0088
5.81723
-1.97202
-7.96789
3.16863
-1.87717
-4.09563
-9.06736
2.98319
-2.07228
-5.77659
1.17983
-2.06879
-4.63347
0.154831
-2.15481
-4.21696
0.0817047
-1.66551
-2.24554
-3.09784
-1.43267
-2.23516
-2.87145
-1.72994
-2.29342
-2.75365
-1.90791
-2.3042
-2.49252
-2.94457
-1.8281
-2.29706
-2.66637
-1.92568
-2.25693
-2.52979
-1.94435
-2.16254
-2.21197
-2.22834
)
;
    }
    bottom
    {
        type            calculated;
        value           nonuniform List<scalar> 
64
(
-20.2828
-20.1875
-19.998
-19.7165
-19.3466
-18.8934
-18.3636
-17.7656
-17.1093
-16.4057
-15.6667
-14.9042
-14.1301
-13.3555
-12.5902
-11.8429
-11.1207
-10.4293
-9.77285
-9.154
-8.57431
-8.03426
-7.53345
-7.07079
-6.64473
-6.25335
-5.89452
-5.56601
-5.26559
-4.99105
-4.7403
-4.51141
-4.30257
-4.11217
-3.93872
-3.7809
-3.63749
-3.50738
-3.38957
-3.28308
-3.18703
-3.10055
-3.02285
-2.95315
-2.8907
-2.83483
-2.78486
-2.74021
-2.70031
-2.66465
-2.6328
-2.60436
-2.57898
-2.55639
-2.53633
-2.51863
-2.50313
-2.48972
-2.47833
-2.46889
-2.46136
-2.45574
-2.45199
-2.45012
)
;
    }
    defaultFaces
    {
        type            empty;
    }
}


// ************************************************************************* //
