/*--------------------------------*- C++ -*----------------------------------*\
| =========                 |                                                 |
| \\      /  F ield         | OpenFOAM: The Open Source CFD Toolbox           |
|  \\    /   O peration     | Version:  5.x                                   |
|   \\  /    A nd           | Web:      www.OpenFOAM.org                      |
|    \\/     M anipulation  |                                                 |
\*---------------------------------------------------------------------------*/
FoamFile
{
    version     2.0;
    format      ascii;
    class       volScalarField;
    location    "5.4";
    object      T;
}
// * * * * * * * * * * * * * * * * * * * * * * * * * * * * * * * * * * * * * //

dimensions      [0 0 0 1 0 0 0];

internalField   nonuniform List<scalar> 
2048
(
9.85428
9.85497
9.85633
9.85835
9.86101
9.86426
9.86807
9.87237
9.87708
9.88214
9.88745
9.89292
9.89849
9.90405
9.90955
9.91492
9.92011
9.92507
9.92979
9.93424
9.9384
9.94228
9.94588
9.9492
9.95226
9.95507
9.95765
9.96001
9.96217
9.96414
9.96594
9.96759
9.96909
9.97046
9.9717
9.97284
9.97387
9.9748
9.97565
9.97641
9.9771
9.97772
9.97828
9.97878
9.97923
9.97963
9.97999
9.98031
9.9806
9.98086
9.98109
9.98129
9.98147
9.98163
9.98178
9.98191
9.98202
9.98211
9.9822
9.98226
9.98232
9.98236
9.98238
9.9824
9.56866
9.57069
9.57472
9.58072
9.58861
9.59828
9.60958
9.62234
9.63634
9.65136
9.66712
9.68339
9.69989
9.7164
9.73271
9.74862
9.76399
9.7787
9.79266
9.80581
9.81813
9.8296
9.84023
9.85004
9.85908
9.86738
9.87499
9.88195
9.88832
9.89414
9.89945
9.9043
9.90873
9.91276
9.91644
9.91979
9.92282
9.92558
9.92808
9.93033
9.93237
9.9342
9.93585
9.93732
9.93865
9.93983
9.94089
9.94183
9.94268
9.94343
9.9441
9.94471
9.94524
9.94572
9.94615
9.94652
9.94685
9.94713
9.94738
9.94758
9.94774
9.94786
9.94793
9.94797
9.29398
9.29732
9.30395
9.31381
9.32678
9.34268
9.36129
9.3823
9.40537
9.4301
9.45606
9.48283
9.50998
9.53712
9.5639
9.59001
9.61521
9.6393
9.66214
9.68365
9.70376
9.72248
9.73981
9.75581
9.77054
9.78405
9.79643
9.80776
9.81812
9.82758
9.83622
9.84411
9.85131
9.85787
9.86385
9.86929
9.87423
9.87871
9.88277
9.88644
9.88975
9.89272
9.8954
9.89779
9.89994
9.90186
9.90358
9.90511
9.90648
9.9077
9.9088
9.90977
9.91065
9.91142
9.91211
9.91272
9.91326
9.91372
9.91411
9.91444
9.9147
9.91489
9.91502
9.91509
9.02902
9.03363
9.04279
9.05642
9.07437
9.0964
9.12219
9.15134
9.18335
9.21766
9.25367
9.29078
9.32838
9.36593
9.40294
9.43897
9.4737
9.50686
9.53826
9.56778
9.59536
9.621
9.64472
9.66659
9.6867
9.70515
9.72204
9.73749
9.75161
9.7645
9.77628
9.78703
9.79684
9.80578
9.81393
9.82134
9.82808
9.83419
9.83972
9.84472
9.84922
9.85327
9.85691
9.86017
9.86309
9.8657
9.86803
9.87011
9.87197
9.87363
9.87512
9.87644
9.87763
9.87869
9.87962
9.88046
9.88118
9.88182
9.88235
9.8828
9.88316
9.88342
9.8836
9.88369
8.77273
8.77858
8.79023
8.80757
8.83042
8.85851
8.89143
8.92867
8.96958
9.01344
9.05945
9.10682
9.15476
9.20258
9.24962
9.29537
9.33938
9.38133
9.42099
9.45821
9.49294
9.52517
9.55495
9.58239
9.60758
9.63068
9.65181
9.67113
9.68878
9.70489
9.71961
9.73304
9.7453
9.75648
9.76666
9.77593
9.78435
9.79198
9.79889
9.80513
9.81076
9.81581
9.82035
9.82441
9.82804
9.83129
9.83419
9.83678
9.8391
9.84116
9.84301
9.84466
9.84614
9.84746
9.84863
9.84967
9.85058
9.85137
9.85204
9.8526
9.85305
9.85339
9.85361
9.85372
8.52428
8.53134
8.54541
8.5664
8.59411
8.62822
8.66827
8.71361
8.76346
8.8169
8.87294
8.93057
8.98882
9.04681
9.10377
9.15905
9.21213
9.26262
9.31025
9.35488
9.39644
9.43494
9.47048
9.50316
9.53315
9.5606
9.58571
9.60864
9.62959
9.64871
9.66616
9.6821
9.69664
9.70991
9.72199
9.73299
9.74298
9.75205
9.76024
9.76764
9.77431
9.78029
9.78566
9.79047
9.79476
9.7986
9.80202
9.80508
9.80781
9.81025
9.81243
9.81438
9.81613
9.81768
9.81907
9.8203
9.82139
9.82233
9.82313
9.8238
9.82433
9.82473
9.825
9.82513
8.28295
8.2912
8.30765
8.33224
8.36475
8.40487
8.45206
8.50558
8.56446
8.62759
8.69375
8.76169
8.83027
8.8984
8.96518
9.02985
9.09181
9.15061
9.20596
9.2577
9.30578
9.35024
9.39121
9.42883
9.46331
9.49484
9.52365
9.54995
9.57395
9.59586
9.61586
9.63412
9.65079
9.666
9.67986
9.69247
9.70393
9.71432
9.72371
9.73219
9.73981
9.74666
9.7528
9.75828
9.76318
9.76756
9.77146
9.77494
9.77805
9.78082
9.78331
9.78553
9.78753
9.78931
9.7909
9.79231
9.79355
9.79463
9.79556
9.79633
9.79694
9.79741
9.79771
9.79787
8.04819
8.05759
8.07637
8.10447
8.14175
8.18787
8.24225
8.30405
8.37212
8.4451
8.52152
8.59991
8.67886
8.75714
8.83369
8.90762
8.97828
9.04517
9.10797
9.16653
9.22083
9.27094
9.31702
9.35928
9.39795
9.43328
9.46552
9.49493
9.52177
9.54625
9.56861
9.58902
9.60766
9.62467
9.64017
9.65428
9.6671
9.67872
9.68922
9.69869
9.70721
9.71485
9.72169
9.72779
9.73324
9.7381
9.74244
9.7463
9.74975
9.75284
9.75559
9.75807
9.76028
9.76227
9.76404
9.76562
9.76701
9.76823
9.76927
9.77014
9.77083
9.77135
9.7717
9.77188
7.81955
7.83005
7.85107
7.88262
7.92459
7.9767
8.03835
8.10856
8.18601
8.26906
8.35596
8.44495
8.53438
8.62283
8.70909
8.79219
8.87138
8.94615
9.01615
9.08125
9.14145
9.19689
9.24778
9.29436
9.33693
9.37577
9.41119
9.44347
9.47291
9.49976
9.52428
9.54668
9.56714
9.58582
9.60285
9.61834
9.63242
9.64518
9.6567
9.66709
9.67642
9.68479
9.69226
9.69893
9.70488
9.71018
9.7149
9.7191
9.72286
9.72622
9.72922
9.73192
9.73434
9.73651
9.73845
9.74019
9.74172
9.74306
9.74421
9.74517
9.74594
9.74652
9.74691
9.7471
7.59665
7.6082
7.63137
7.66625
7.71283
7.77091
7.83989
7.9187
8.00577
8.09917
8.1968
8.29658
8.39662
8.49529
8.59123
8.68339
8.77096
8.85338
8.93033
9.00167
9.06747
9.12793
9.1833
9.23391
9.28009
9.32217
9.3605
9.39541
9.42723
9.45625
9.48276
9.50698
9.52912
9.54933
9.56777
9.58456
9.5998
9.6136
9.62607
9.6373
9.64738
9.6564
9.66446
9.67163
9.67802
9.68371
9.68877
9.69328
9.69731
9.70091
9.70414
9.70703
9.70963
9.71197
9.71407
9.71595
9.71762
9.71908
9.72033
9.72138
9.72222
9.72286
9.72328
9.72349
7.37924
7.39176
7.41695
7.45501
7.50609
7.5701
7.64649
7.73409
7.83108
7.93515
8.04381
8.15462
8.2654
8.37432
8.47992
8.58104
8.67683
8.76671
8.85033
8.92763
8.99871
9.06386
9.12341
9.17775
9.22725
9.27231
9.3133
9.35061
9.38459
9.41558
9.4439
9.46979
9.49347
9.51511
9.53485
9.55282
9.56914
9.58391
9.59725
9.60925
9.62001
9.62963
9.6382
9.64583
9.65261
9.65864
9.664
9.66878
9.67304
9.67686
9.68027
9.68334
9.68611
9.6886
9.69085
9.69286
9.69465
9.69622
9.69758
9.69871
9.69963
9.70031
9.70077
9.701
7.1671
7.18051
7.20756
7.24861
7.30401
7.37388
7.45775
7.55438
7.66163
7.77676
7.89678
8.01887
8.14054
8.25978
8.375
8.48498
8.58883
8.68594
8.77598
8.85893
8.93497
9.00449
9.06791
9.12567
9.17823
9.226
9.26942
9.30889
9.34482
9.3776
9.40756
9.43498
9.46008
9.48303
9.50397
9.52304
9.54034
9.55601
9.57014
9.58284
9.59422
9.60438
9.61341
9.62144
9.62856
9.63489
9.64051
9.64552
9.64999
9.65399
9.65758
9.6608
9.66371
9.66634
9.66872
9.67086
9.67277
9.67445
9.6759
9.67711
9.6781
9.67883
9.67933
9.67958
6.96009
6.97428
7.00299
7.04679
7.1063
7.18191
7.27332
7.37924
7.49717
7.62378
7.75555
7.88918
8.0219
8.15149
8.27629
8.39501
8.50675
8.61089
8.70709
8.79536
8.87604
8.94961
9.01658
9.07749
9.13283
9.18307
9.22868
9.2701
9.30778
9.34215
9.3736
9.40241
9.42882
9.45298
9.47503
9.4951
9.51332
9.5298
9.54466
9.55801
9.56995
9.58058
9.59003
9.5984
9.60582
9.6124
9.61825
9.62346
9.6281
9.63226
9.63599
9.63935
9.64239
9.64514
9.64764
9.6499
9.65192
9.6537
9.65524
9.65654
9.65759
9.65838
9.65891
9.65917
6.75812
6.77297
6.80311
6.84936
6.91269
6.99386
7.09286
7.20836
7.33744
7.47604
7.61996
7.76543
7.90933
8.0493
8.18361
8.31096
8.43043
8.54137
8.64344
8.73673
8.82171
8.89899
8.96922
9.033
9.09087
9.14334
9.1909
9.23406
9.2733
9.30909
9.34187
9.37195
9.39956
9.42484
9.44792
9.46892
9.48798
9.50521
9.52073
9.53466
9.54711
9.55817
9.56797
9.57664
9.58431
9.59111
9.59715
9.60252
9.60731
9.6116
9.61545
9.61893
9.62208
9.62495
9.62756
9.62992
9.63205
9.63393
9.63556
9.63694
9.63805
9.63889
9.63945
9.63973
6.56115
6.5765
6.6078
6.65615
6.72294
6.80943
6.91603
7.04144
7.18223
7.33339
7.48991
7.6475
7.8027
7.95304
8.09679
8.23263
8.35964
8.47718
8.58485
8.68282
8.77173
8.85242
8.92561
8.99198
9.05214
9.10661
9.15592
9.20062
9.24122
9.27826
9.31223
9.34348
9.37219
9.3985
9.42254
9.4444
9.46422
9.48213
9.49826
9.51273
9.52563
9.53707
9.54718
9.5561
9.56398
9.57095
9.57714
9.58265
9.58757
9.59196
9.59592
9.59949
9.60274
9.6057
9.60842
9.61089
9.61312
9.61509
9.61682
9.61827
9.61945
9.62033
9.62093
9.62122
6.36916
6.38486
6.417
6.46702
6.53683
6.62832
6.74248
6.8782
7.03136
7.19571
7.36529
7.53529
7.70189
7.86255
8.01563
8.15981
8.2942
8.41814
8.53113
8.63341
8.7259
8.80965
8.88551
8.95423
9.01645
9.07271
9.12357
9.16961
9.21138
9.2495
9.28453
9.31684
9.34659
9.37387
9.39878
9.42143
9.44195
9.46049
9.47718
9.49213
9.50544
9.51722
9.52758
9.5367
9.54475
9.55187
9.55818
9.5638
9.56881
9.5733
9.57733
9.58098
9.58431
9.58737
9.59018
9.59275
9.59507
9.59715
9.59896
9.60049
9.60173
9.60266
9.60329
9.6036
6.18218
6.19804
6.23068
6.28189
6.35417
6.45022
6.57186
6.71831
6.88468
7.06292
7.24603
7.42874
7.60676
7.77766
7.93996
8.0923
8.23388
8.36405
8.48207
8.58827
8.68396
8.77047
8.84872
8.91953
8.98361
9.04147
9.09368
9.14088
9.18365
9.22268
9.25864
9.29194
9.32265
9.35082
9.37656
9.39993
9.42109
9.44021
9.45739
9.47278
9.48647
9.49854
9.50911
9.51839
9.52657
9.5338
9.5402
9.54591
9.55099
9.55555
9.55965
9.56336
9.56676
9.56989
9.57279
9.57546
9.57788
9.58005
9.58194
9.58355
9.58485
9.58584
9.58649
9.58682
6.00024
6.01608
6.04884
6.10069
6.1748
6.27485
6.4038
6.56149
6.74206
6.93497
7.13207
7.32776
7.51722
7.69818
7.86957
8.02986
8.17845
8.31473
8.4375
8.5472
8.64567
8.73464
8.81501
8.88769
8.95345
9.01271
9.06609
9.11429
9.15787
9.19763
9.23441
9.26864
9.30025
9.32927
9.35578
9.37981
9.40155
9.42119
9.43883
9.45462
9.46866
9.48098
9.49171
9.5011
9.50938
9.51668
9.52316
9.52892
9.53406
9.53867
9.54282
9.54658
9.55002
9.55323
9.55622
9.55898
9.5615
9.56375
9.56573
9.56741
9.56878
9.56981
9.5705
9.57084
5.82339
5.83902
5.87149
5.92339
5.99859
6.10193
6.23789
6.40739
6.60345
6.81187
7.02335
7.23234
7.43312
7.62391
7.80426
7.97228
8.12768
8.27001
8.39725
8.50995
8.61077
8.70193
8.78417
8.85849
8.92578
8.98628
9.04065
9.0897
9.13392
9.17423
9.2117
9.24683
9.27932
9.30912
9.33635
9.361
9.38325
9.40337
9.42143
9.43758
9.45194
9.46448
9.47532
9.48478
9.49311
9.50047
9.50699
9.5128
9.51798
9.52261
9.5268
9.53059
9.53407
9.53733
9.54042
9.54327
9.54588
9.54823
9.55029
9.55205
9.55348
9.55456
9.55527
9.55562
5.6517
5.66691
5.6987
5.75
5.82542
5.93117
6.07369
6.25563
6.46886
6.69364
6.9198
7.14244
7.35436
7.55461
7.74385
7.91931
8.08129
8.22974
8.36116
8.4763
8.579
8.67213
8.756
8.83173
8.90045
8.96201
9.0172
9.06699
9.11166
9.15231
9.19038
9.22642
9.25974
9.29027
9.31821
9.3434
9.36611
9.38668
9.4051
9.42158
9.43626
9.44898
9.45988
9.46936
9.47773
9.48511
9.49164
9.49749
9.50269
9.50734
9.51155
9.51535
9.51885
9.52217
9.52534
9.52829
9.53099
9.53343
9.53558
9.53741
9.53891
9.54004
9.54078
9.54113
5.48522
5.49982
5.53051
5.58054
5.65525
5.76233
5.91072
6.10578
6.33841
6.58037
6.82132
7.0581
7.28081
7.49001
7.68816
7.87069
8.03898
8.19381
8.32911
8.44601
8.55006
8.64503
8.73028
8.80721
8.87732
8.93978
8.9956
9.04605
9.09099
9.13176
9.1703
9.20732
9.24145
9.27265
9.30129
9.32696
9.35004
9.37104
9.38979
9.40656
9.42157
9.43444
9.44533
9.45478
9.46317
9.47055
9.47708
9.48295
9.48815
9.49281
9.49703
9.50083
9.50433
9.5077
9.51097
9.51401
9.51679
9.51933
9.52156
9.52346
9.52504
9.52621
9.52697
9.52733
5.324
5.33781
5.367
5.41508
5.48805
5.59515
5.74842
5.9573
6.21237
6.4722
6.72772
6.9794
7.21235
7.42977
7.63707
7.82617
8.00039
8.16215
8.30101
8.41882
8.52365
8.62047
8.70685
8.78471
8.85625
8.91943
8.97568
9.02678
9.0718
9.11241
9.15132
9.18945
9.22436
9.25615
9.28552
9.31159
9.33497
9.35641
9.37541
9.39244
9.40782
9.42081
9.43163
9.441
9.44939
9.45674
9.46325
9.46914
9.47433
9.47897
9.48321
9.48699
9.49047
9.49387
9.49726
9.50039
9.50325
9.5059
9.5082
9.51017
9.51184
9.51305
9.51383
9.51419
5.16809
5.18094
5.20826
5.25371
5.32384
5.42945
5.58618
5.80946
6.09125
6.3693
6.63869
6.9065
7.14884
7.37343
7.59052
7.78547
7.96506
8.13478
8.27679
8.39447
8.49941
8.59831
8.68551
8.76399
8.83716
8.90086
8.9573
9.00914
9.05401
9.09412
9.13326
9.17277
9.20842
9.24068
9.27085
9.29723
9.32081
9.34272
9.36193
9.37915
9.39497
9.40805
9.41871
9.42794
9.43636
9.44365
9.45011
9.45603
9.46119
9.46579
9.47005
9.4738
9.47723
9.48066
9.48418
9.4874
9.49034
9.4931
9.49547
9.4975
9.49926
9.50053
9.50131
9.50167
5.01751
5.02926
5.05436
5.09654
5.16272
5.26509
5.42335
5.66133
5.97586
6.2719
6.55375
6.83974
7.09016
7.32044
7.54857
7.74833
7.93242
8.1118
8.25646
8.37265
8.47692
8.57847
8.66612
8.74479
8.82001
8.88394
8.94024
8.99307
9.03754
9.07675
9.11596
9.15728
9.19356
9.22614
9.25727
9.28384
9.30745
9.32995
9.34926
9.3666
9.38301
9.39613
9.40652
9.41555
9.42402
9.43123
9.4376
9.44358
9.44869
9.45323
9.45753
9.46122
9.46457
9.46801
9.47172
9.47501
9.47801
9.48091
9.48334
9.48543
9.4873
9.48861
9.4894
9.48974
4.87227
4.8828
4.9054
4.94371
5.00482
5.102
5.25921
5.51158
5.86747
6.18026
6.47208
6.77967
7.03618
7.26998
7.51145
7.71448
7.9017
8.09351
8.24002
8.35305
8.45571
8.56096
8.64853
8.7268
8.8048
8.86857
8.92431
8.97859
9.02236
9.06014
9.09919
9.143
9.17976
9.21238
9.24477
9.27134
9.29481
9.31807
9.33736
9.3547
9.37192
9.38502
9.39501
9.40376
9.41236
9.41945
9.42569
9.43177
9.43679
9.44125
9.44562
9.44923
9.45245
9.45589
9.45984
9.4632
9.46623
9.4693
9.47177
9.4739
9.47593
9.47728
9.47805
9.47838
4.73237
4.74158
4.76142
4.79536
4.85033
4.94025
5.09306
5.35837
5.76799
6.09466
6.39247
6.72715
6.98676
7.221
7.47967
7.68363
7.87189
8.08039
8.22754
8.33531
8.43518
8.54593
8.63261
8.70962
8.79164
8.85464
8.90921
8.96576
9.00842
9.04413
9.08269
9.13002
9.16695
9.19925
9.23339
9.25968
9.28274
9.3071
9.32617
9.34334
9.36172
9.37471
9.38412
9.3925
9.40135
9.40826
9.41431
9.42058
9.42548
9.4298
9.43431
9.43781
9.44085
9.44426
9.44855
9.45193
9.45497
9.45826
9.46075
9.46289
9.46511
9.46649
9.46724
9.46755
4.59778
4.6056
4.6225
4.65164
4.69951
4.78
4.92422
5.1991
5.6802
6.01536
6.31307
6.68358
6.94175
7.17199
7.45413
7.65553
7.84158
8.07328
8.2191
8.31904
8.41459
8.53369
8.61824
8.69275
8.78073
8.84208
8.8946
8.95472
8.99571
9.02857
9.06614
9.11853
9.15512
9.18653
9.22319
9.24883
9.27108
9.29708
9.31564
9.33237
9.35244
9.36516
9.37381
9.3817
9.391
9.39764
9.40341
9.41
9.41471
9.41884
9.42359
9.42692
9.42972
9.43306
9.43783
9.4412
9.44418
9.44777
9.45024
9.45236
9.45485
9.45624
9.45694
9.45722
4.46844
4.47482
4.48867
4.51269
4.55265
4.62162
4.7522
5.03013
5.60804
5.94255
6.23126
6.65099
6.90096
7.12094
7.43622
7.62989
7.80892
8.07342
8.21472
8.30384
8.39299
8.52478
8.60532
8.67554
8.77245
8.83078
8.88001
8.94572
8.98421
9.01332
9.04912
9.10883
9.14423
9.17395
9.21434
9.23873
9.25963
9.2881
9.30572
9.32161
9.34417
9.35636
9.364
9.37125
9.38133
9.38756
9.39292
9.40004
9.40446
9.4083
9.41345
9.41656
9.41904
9.42223
9.42769
9.43096
9.43381
9.43784
9.44022
9.44226
9.44512
9.4465
9.44712
9.44736
4.34428
4.34922
4.35994
4.37863
4.41007
4.4656
4.57681
4.84637
5.55704
5.87632
6.14335
6.63238
6.86417
7.06507
7.42809
7.60646
7.77136
8.08266
8.21441
8.2893
8.36919
8.52005
8.59372
8.6571
8.76739
8.82064
8.86485
8.93912
8.97391
8.99823
9.03107
9.10135
9.13423
9.16113
9.20705
9.22932
9.24813
9.28032
9.29636
9.31082
9.33702
9.34829
9.35466
9.36106
9.37236
9.37799
9.38277
9.39072
9.39471
9.39813
9.40391
9.4067
9.40877
9.41171
9.41816
9.42121
9.42381
9.42846
9.43067
9.43254
9.43593
9.43724
9.43777
9.43796
4.22523
4.22871
4.2363
4.24958
4.2721
4.31265
4.39839
4.64082
5.53473
5.81651
6.04427
6.63197
6.83108
7.00068
7.43281
7.58496
7.72556
8.10364
8.21794
8.27507
8.34163
8.52075
8.58332
8.6363
8.76641
8.81157
8.84831
8.93548
8.96478
8.98324
9.01129
9.09673
9.12508
9.14758
9.20169
9.22057
9.23623
9.27397
9.28752
9.29972
9.3312
9.3409
9.34573
9.35098
9.36416
9.3689
9.37284
9.38208
9.38542
9.38825
9.39499
9.39732
9.39889
9.40142
9.40928
9.41191
9.41411
9.41967
9.42155
9.42315
9.42728
9.42844
9.42884
9.42899
4.11116
4.11322
4.11772
4.1256
4.13904
4.16359
4.21808
4.40398
5.55123
5.76266
5.92727
6.6556
6.80126
6.92289
7.45462
7.56512
7.66707
8.14001
8.22486
8.26087
8.30832
8.52862
8.57398
8.61164
8.77072
8.80341
8.82939
8.93557
8.95671
8.9683
8.98882
9.09584
9.11669
9.13267
9.19874
9.21239
9.22348
9.26939
9.27915
9.28792
9.32699
9.33413
9.33716
9.34085
9.35686
9.36025
9.36302
9.37418
9.37657
9.37857
9.38673
9.38841
9.38939
9.39125
9.40112
9.40305
9.40463
9.41148
9.41286
9.41401
9.4192
9.42007
9.42033
9.42042
4.00197
4.00265
4.00413
4.00673
4.01118
4.01936
4.03824
4.12316
5.61992
5.71381
5.78352
6.71115
6.77411
6.82531
7.4993
7.54663
7.59017
8.19673
8.23425
8.24665
8.26669
8.54604
8.56548
8.58119
8.782
8.79599
8.80676
8.94048
8.94954
8.95352
8.96245
9.09986
9.10894
9.11559
9.19889
9.20472
9.20933
9.26706
9.27121
9.27492
9.32476
9.3279
9.32894
9.33047
9.35058
9.35202
9.35317
9.36712
9.36813
9.36896
9.37921
9.37992
9.38026
9.38107
9.39376
9.3946
9.39526
9.40397
9.40456
9.40505
9.41172
9.41211
9.4122
9.41223
)
;

boundaryField
{
    left
    {
        type            zeroGradient;
    }
    right
    {
        type            zeroGradient;
    }
    interface
    {
        type            fixedValue;
        value           nonuniform List<scalar> 
64
(
3.94858
3.94858
3.94858
3.94858
3.94858
3.94858
3.94858
3.94858
5.69057
5.69057
5.69057
6.76115
6.76115
6.76115
7.5377
7.5377
7.5377
8.23949
8.23949
8.23949
8.23949
8.56142
8.56142
8.56142
8.79245
8.79245
8.79245
8.94617
8.94617
8.94617
8.94617
9.10522
9.10522
9.10522
9.20101
9.20101
9.20101
9.26734
9.26734
9.26734
9.32491
9.32491
9.32491
9.32491
9.34801
9.34801
9.34801
9.36401
9.36401
9.36401
9.37578
9.37578
9.37578
9.37578
9.39047
9.39047
9.39047
9.40051
9.40051
9.40051
9.40822
9.40822
9.40822
9.40822
)
;
    }
    bottom
    {
        type            fixedValue;
        value           uniform 10;
    }
    defaultFaces
    {
        type            empty;
    }
}


// ************************************************************************* //
