/*--------------------------------*- C++ -*----------------------------------*\
| =========                 |                                                 |
| \\      /  F ield         | OpenFOAM: The Open Source CFD Toolbox           |
|  \\    /   O peration     | Version:  5.x                                   |
|   \\  /    A nd           | Web:      www.OpenFOAM.org                      |
|    \\/     M anipulation  |                                                 |
\*---------------------------------------------------------------------------*/
FoamFile
{
    version     2.0;
    format      ascii;
    class       volScalarField;
    location    "2.7";
    object      gradTx;
}
// * * * * * * * * * * * * * * * * * * * * * * * * * * * * * * * * * * * * * //

dimensions      [0 -1 0 1 0 0 0];

internalField   nonuniform List<scalar> 
2048
(
0.0197691
0.0590662
0.097616
0.134859
0.170171
0.202862
0.232225
0.257591
0.278401
0.294266
0.305009
0.310679
0.311537
0.308019
0.300686
0.290176
0.277157
0.262286
0.246182
0.2294
0.212415
0.195621
0.179326
0.163757
0.149072
0.135366
0.122686
0.111041
0.100405
0.0907327
0.0819604
0.0740162
0.0668242
0.0603097
0.0544026
0.0490392
0.0441637
0.0397281
0.0356914
0.032019
0.0286816
0.0256537
0.0229132
0.0204396
0.0182136
0.0162164
0.0144295
0.0128344
0.011413
0.0101473
0.00901959
0.0080126
0.00710956
0.00629435
0.0055516
0.004867
0.0042275
0.0036216
0.00303952
0.00247341
0.00191728
0.00136691
0.000819477
0.000273105
0.0586433
0.175234
0.289661
0.400283
0.505241
0.602471
0.689829
0.765283
0.827126
0.874172
0.90589
0.922438
0.924616
0.91375
0.891544
0.859922
0.820889
0.776417
0.728351
0.678342
0.627806
0.577904
0.529543
0.483386
0.439891
0.399334
0.361845
0.327437
0.296033
0.26749
0.241616
0.218194
0.196994
0.177793
0.160382
0.144573
0.130199
0.11712
0.105215
0.0943823
0.0845366
0.0756038
0.0675188
0.0602219
0.0536566
0.0477675
0.0425
0.0377996
0.0336124
0.0298851
0.0265654
0.0236022
0.0209459
0.0185485
0.0163645
0.0143513
0.0124702
0.0106869
0.0089726
0.00730395
0.00566342
0.00403877
0.00242209
0.000807493
0.0963476
0.287961
0.476188
0.658393
0.831514
0.992081
1.13644
1.26108
1.36306
1.44033
1.49199
1.51833
1.52077
1.50159
1.46371
1.41038
1.34498
1.27081
1.19093
1.10807
1.02457
0.942325
0.862794
0.787043
0.715788
0.649454
0.588228
0.532111
0.480957
0.434512
0.392449
0.354396
0.31997
0.288795
0.260526
0.234851
0.211501
0.190247
0.170894
0.153279
0.137265
0.122734
0.109583
0.097716
0.0870425
0.0774727
0.0689176
0.0612882
0.0544961
0.0484541
0.0430767
0.0382803
0.0339833
0.0301071
0.0265768
0.0233221
0.0202792
0.0173918
0.0146122
0.0119025
0.00923433
0.0065882
0.00395338
0.001319
0.133158
0.398105
0.658728
0.911513
1.15222
1.37588
1.57717
1.7509
1.89268
1.99948
2.06999
2.10474
2.10584
2.0767
2.02157
1.94515
1.85226
1.74756
1.63536
1.51948
1.40315
1.28896
1.17889
1.07434
0.976243
0.885128
0.801202
0.724424
0.654556
0.591218
0.533929
0.482151
0.435334
0.392949
0.354509
0.319586
0.287811
0.258872
0.232509
0.208502
0.18667
0.166857
0.148927
0.132752
0.118211
0.105183
0.0935453
0.0831755
0.0739522
0.0657556
0.058468
0.0519743
0.0461625
0.0409236
0.0361539
0.0317559
0.0276405
0.0237297
0.0199577
0.0162723
0.012635
0.00901977
0.00541614
0.00180854
0.169229
0.506176
0.83825
1.16122
1.46969
1.75707
2.01609
2.23955
2.4213
2.55715
2.64539
2.68682
2.6845
2.64314
2.56854
2.467
2.34486
2.20825
2.06273
1.91324
1.76386
1.61787
1.4777
1.34502
1.22092
1.10598
1.00037
0.903983
0.81646
0.737271
0.665759
0.601203
0.542872
0.490072
0.442176
0.398641
0.359006
0.322883
0.289952
0.259947
0.232649
0.207871
0.18545
0.165232
0.147069
0.13081
0.116301
0.103387
0.0919139
0.0817307
0.0726887
0.0646426
0.0574503
0.0509737
0.0450798
0.0396439
0.0345519
0.0297037
0.0250156
0.0204219
0.0158743
0.0113412
0.00681524
0.00227755
0.204605
0.612348
1.0152
1.40842
1.78549
2.13803
2.45642
2.73097
2.95338
3.11803
3.22274
3.2688
3.26047
3.20409
3.10723
2.97798
2.82436
2.65398
2.47377
2.28974
2.10689
1.92909
1.75914
1.59895
1.44965
1.31181
1.18553
1.07059
0.966494
0.872524
0.787827
0.711474
0.642531
0.580132
0.523508
0.472004
0.425073
0.382265
0.343206
0.307592
0.275174
0.245741
0.219112
0.195113
0.173573
0.154313
0.137146
0.121888
0.108351
0.0963532
0.0857169
0.0762678
0.0678349
0.0602507
0.0533534
0.0469902
0.0410215
0.0353248
0.0297988
0.0243643
0.0189643
0.0135625
0.00815699
0.00272805
0.239219
0.716476
1.1895
1.65337
2.10048
2.52041
2.90071
3.22853
3.49279
3.68613
3.8059
3.85416
3.83673
3.76197
3.63956
3.47957
3.29181
3.08548
2.8689
2.64922
2.4323
2.22258
2.02317
1.83605
1.66236
1.50256
1.35664
1.22422
1.10464
0.996988
0.900174
0.813029
0.734397
0.663223
0.598597
0.53976
0.486092
0.437085
0.392326
0.35148
0.314274
0.280486
0.249922
0.222399
0.197723
0.175689
0.15608
0.138677
0.123262
0.109623
0.0975533
0.0868525
0.0773212
0.0687628
0.0609859
0.0538088
0.0470656
0.040611
0.0343255
0.0281171
0.02192
0.0156951
0.00944869
0.00316238
0.272896
0.818107
1.36063
1.89573
2.41486
2.90528
3.351
3.73511
4.04297
4.26501
4.39821
4.44575
4.41557
4.31856
4.16685
3.97271
3.74786
3.50314
3.2483
2.9917
2.74006
2.4983
2.26974
2.05634
1.85909
1.67829
1.51376
1.36496
1.23101
1.1108
1.00296
0.906055
0.818666
0.73954
0.667627
0.602076
0.542208
0.487472
0.437424
0.391704
0.350026
0.312165
0.277929
0.247127
0.21955
0.194967
0.173128
0.153779
0.136669
0.121559
0.108217
0.0964143
0.0859269
0.0765288
0.0679976
0.0601216
0.0527071
0.0455854
0.0386182
0.0317008
0.0247589
0.0177525
0.0106983
0.00358306
0.305366
0.916494
1.52757
2.13458
2.72822
3.29311
3.80887
4.25331
4.60708
4.85792
5.00255
5.04589
4.99873
4.87507
4.68992
4.45793
4.19281
3.90708
3.61195
3.31707
3.03003
2.75619
2.49889
2.25991
2.03999
1.83919
1.65711
1.493
1.34583
1.21419
1.09645
0.990832
0.895622
0.809356
0.730849
0.659177
0.593621
0.533604
0.478655
0.428399
0.382544
0.340872
0.303205
0.269358
0.23911
0.212199
0.188339
0.167238
0.148614
0.132199
0.117738
0.104982
0.0936798
0.0835761
0.0744162
0.0659561
0.0579734
0.0502747
0.0427025
0.0351386
0.0275003
0.0197488
0.0119143
0.00399262
0.336262
1.01061
1.68886
2.36842
3.03954
3.68389
4.27561
4.78556
5.18821
5.46791
5.6215
5.65646
5.58739
5.43218
5.20911
4.93541
4.62672
4.29721
3.95966
3.6251
3.30205
2.99617
2.71065
2.44691
2.2053
1.98552
1.78695
1.60865
1.44937
1.30748
1.18099
1.06772
0.965625
0.873008
0.788566
0.711331
0.640568
0.575688
0.516204
0.461726
0.411963
0.366718
0.325844
0.289174
0.256477
0.227454
0.201778
0.179116
0.159151
0.141591
0.126161
0.112593
0.100614
0.0899379
0.0802742
0.0713441
0.0628951
0.0547084
0.0466062
0.0384556
0.0301648
0.0216988
0.0131047
0.00439336
0.365138
1.09919
1.84262
2.59517
3.34717
4.07709
4.75221
5.33428
5.78944
6.09793
6.2573
6.27887
6.18223
5.99008
5.72441
5.40501
5.04941
4.67333
4.29113
3.91547
3.55588
3.21818
2.90514
2.61761
2.35535
2.11766
1.90365
1.71223
1.54198
1.39103
1.25697
1.13714
1.02909
0.930879
0.841119
0.758834
0.683308
0.613957
0.550279
0.49187
0.438441
0.389831
0.345951
0.306668
0.271736
0.240815
0.213524
0.189485
0.168345
0.149791
0.133533
0.11929
0.106768
0.0956515
0.0856079
0.0763201
0.0675046
0.0589171
0.050358
0.0416782
0.0327739
0.0236178
0.0142774
0.00478731
0.391479
1.18073
1.98658
2.81222
3.64885
4.47164
5.23948
5.90196
6.41403
6.75089
6.91197
6.9141
6.78343
6.54852
6.23541
5.86638
5.46063
5.03513
4.60596
4.18776
3.79126
3.4222
3.08256
2.77234
2.49057
2.23605
2.00766
1.80417
1.62406
1.46524
1.32485
1.19958
1.08648
0.983388
0.888872
0.801997
0.722113
0.648653
0.5811
0.519029
0.462148
0.410349
0.363638
0.321937
0.284982
0.252373
0.223667
0.198428
0.176271
0.156863
0.139908
0.125117
0.112183
0.100757
0.0904559
0.08092
0.0718353
0.0629319
0.0539874
0.0448332
0.0353498
0.0255205
0.0154397
0.005176
0.414726
1.25359
2.11814
3.0164
3.94165
4.86598
5.73806
6.49139
7.06554
7.42972
7.58722
7.56268
7.39064
7.1068
6.74142
6.319
5.86003
5.3823
4.90369
4.4415
4.00793
3.60825
3.24318
2.91156
2.61149
2.34122
2.09946
1.8849
1.69599
1.53054
1.38511
1.25555
1.13829
1.03098
0.932197
0.841133
0.757256
0.680025
0.608896
0.543412
0.483262
0.428411
0.379015
0.335083
0.296316
0.262229
0.232302
0.206035
0.183006
0.162874
0.14534
0.13012
0.116901
0.105295
0.0948584
0.0851804
0.0759197
0.0667829
0.0575234
0.0479486
0.0379151
0.0274214
0.0165975
0.00556044
0.434296
1.31601
2.23442
3.20405
4.22193
5.25787
6.24847
7.10575
7.74799
8.13736
8.28448
8.22468
8.00297
7.6638
7.2415
6.76224
6.24734
5.71461
5.18383
4.6761
4.20559
3.77642
3.38736
3.03582
2.71874
2.43377
2.17959
1.95487
1.75818
1.58735
1.43829
1.30563
1.18504
1.07409
0.971469
0.876546
0.789004
0.70832
0.633897
0.565237
0.501969
0.444153
0.392186
0.346204
0.305841
0.270487
0.239532
0.212402
0.188635
0.167895
0.149887
0.134343
0.120962
0.109308
0.0988569
0.0891375
0.0797891
0.0704987
0.060994
0.0510527
0.0404934
0.0293343
0.0177555
0.00594093
0.449618
1.36621
2.33239
3.37102
4.48531
5.64438
6.77108
7.7489
8.46604
8.87676
9.00483
8.89966
8.61898
8.218
7.73452
7.19538
6.62239
6.03195
5.4458
4.89088
4.38398
3.92693
3.51557
3.14578
2.81304
2.51436
2.24863
2.01458
1.811
1.63608
1.48492
1.35042
1.22729
1.1132
1.00706
0.908524
0.817609
0.733776
0.656332
0.584728
0.518463
0.457709
0.403246
0.355397
0.313663
0.277256
0.245466
0.217627
0.193242
0.171995
0.153603
0.137828
0.124402
0.11284
0.102494
0.0928263
0.0834728
0.0741054
0.0644255
0.0541745
0.0431094
0.0312716
0.0189161
0.00631689
0.460159
1.40251
2.40895
3.51283
4.72661
6.02168
7.30608
8.42562
9.22519
9.65072
9.74888
9.58668
9.23655
8.76754
8.21919
7.61765
6.98522
6.33446
5.689
5.08497
4.54282
4.06009
3.6284
3.24221
2.89521
2.58366
2.3072
2.06449
1.85476
1.6771
1.5256
1.3906
1.26557
1.14873
1.03931
0.937323
0.843308
0.756626
0.676422
0.60212
0.532945
0.469196
0.412269
0.362752
0.319893
0.282646
0.250213
0.221815
0.196911
0.175246
0.156544
0.14061
0.127256
0.115933
0.105815
0.0962802
0.0869965
0.0776258
0.0678417
0.0573446
0.04579
0.0332443
0.0200789
0.00668661
0.465468
1.42338
2.46111
3.62467
4.93981
6.38481
7.85337
9.14198
10.0321
10.4617
10.5168
10.2844
9.85289
9.31026
8.69425
8.0282
7.33621
6.62266
5.91267
5.25724
4.68193
4.17645
3.7265
3.32599
2.96615
2.64239
2.35594
2.10512
1.88971
1.71068
1.56095
1.42688
1.30043
1.18113
1.06856
0.963158
0.866314
0.777092
0.694372
0.617657
0.545634
0.478718
0.419306
0.368356
0.324646
0.286766
0.253888
0.225069
0.199726
0.177719
0.158762
0.142718
0.12955
0.118635
0.108867
0.0995293
0.0903826
0.0810786
0.0712623
0.0605956
0.0485655
0.0352611
0.0212394
0.00704683
0.465198
1.42757
2.48611
3.70167
5.11803
6.72742
8.41235
9.90585
10.8948
11.3113
11.308
10.9909
10.4643
9.84382
9.15848
8.426
7.67617
6.89761
6.11581
5.40618
4.80119
4.27678
3.81057
3.39811
3.02688
2.6912
2.39553
2.137
1.91596
1.73703
1.59169
1.46009
1.33237
1.21081
1.09514
0.986189
0.886824
0.795393
0.710365
0.6316
0.55677
0.48635
0.424371
0.372292
0.328046
0.289725
0.256607
0.227501
0.201764
0.179487
0.160311
0.144169
0.131302
0.120996
0.111704
0.102599
0.093649
0.0844782
0.0747014
0.0639637
0.0514717
0.0373271
0.022387
0.00739202
0.459145
1.41419
2.48163
3.739
5.25358
7.04142
8.98154
10.7276
11.8233
12.1997
12.1213
11.7046
11.0661
10.3658
9.61099
8.80959
8.00651
7.16117
6.29708
5.52973
4.9007
4.36224
3.88128
3.45966
3.07857
2.73067
2.42671
2.16074
1.93347
1.75617
1.61863
1.49117
1.36183
1.23815
1.11935
1.0065
0.905018
0.81175
0.724541
0.644234
0.566633
0.492134
0.427434
0.374648
0.330233
0.29162
0.258487
0.229222
0.203092
0.18062
0.161249
0.144968
0.132519
0.123073
0.114385
0.105507
0.0968097
0.0878348
0.0781642
0.0674901
0.0545528
0.0394421
0.0235028
0.00771361
0.447262
1.38282
2.44596
3.73218
5.33805
7.31652
9.55796
11.621
12.8303
13.1245
12.9551
12.4238
11.6517
10.8741
10.0515
9.17674
8.32946
7.41635
6.45447
5.62505
4.98093
4.43449
3.93912
3.51185
3.12254
2.76118
2.45026
2.17706
1.94197
1.76793
1.64274
1.52122
1.38907
1.2635
1.14154
1.02406
0.921073
0.826405
0.736968
0.65588
0.575562
0.496054
0.4284
0.375525
0.331373
0.292533
0.259651
0.230356
0.203762
0.181196
0.161639
0.145103
0.133189
0.124938
0.116984
0.108258
0.0998751
0.0911553
0.0816427
0.071224
0.0578655
0.0415979
0.0245567
0.00799902
0.429674
1.33354
2.37813
3.67732
5.3625
7.53985
10.1362
12.6044
13.9316
14.079
13.8073
13.1479
12.2127
11.367
10.4806
9.52374
8.64829
7.6678
6.58501
5.68822
5.04292
4.4959
3.98417
3.55604
3.16039
2.78275
2.46711
2.18693
1.9409
1.7718
1.66526
1.55159
1.41416
1.28721
1.1621
1.03867
0.935183
0.83964
0.747602
0.666912
0.583988
0.49802
0.427098
0.375051
0.331666
0.292511
0.260227
0.231036
0.203798
0.181296
0.161558
0.144537
0.133279
0.12668
0.119588
0.110837
0.102854
0.094446
0.0851084
0.0752258
0.0614838
0.0437742
0.025504
0.00823075
0.406676
1.26697
2.27807
3.57149
5.31785
7.69549
10.7069
13.7026
15.1479
15.0497
14.6758
13.8786
12.7368
11.8441
10.9008
9.84437
8.96775
7.92244
6.68416
5.71389
5.08865
4.54978
4.01572
3.59385
3.19412
2.79484
2.47835
2.19167
1.92926
1.76687
1.68781
1.58393
1.43671
1.30964
1.18154
1.0499
0.94759
0.851823
0.756214
0.67778
0.592475
0.497828
0.42325
0.373407
0.331368
0.291545
0.260356
0.231421
0.203182
0.181012
0.161109
0.143201
0.132724
0.128418
0.122311
0.113198
0.10576
0.0977165
0.0885014
0.0795722
0.0655073
0.0459321
0.0262825
0.00838584
0.378726
1.18426
2.14671
3.41303
5.19536
7.76421
11.2546
14.9489
16.5062
16.013
15.5599
14.6209
13.2065
12.3067
11.3169
10.1283
9.29462
8.19039
6.74514
5.69485
5.1215
4.60073
4.03173
3.62723
3.22634
2.79596
2.48534
2.19315
1.9055
1.75164
1.71252
1.62035
1.45574
1.33125
1.20059
1.05694
0.95864
0.863466
0.762288
0.689052
0.601781
0.495116
0.416449
0.370854
0.33081
0.289533
0.260199
0.231705
0.20183
0.180458
0.160429
0.140988
0.131416
0.13031
0.125297
0.115244
0.108611
0.100987
0.0917153
0.0843635
0.0700695
0.048006
0.0268103
0.00843613
0.346414
1.08702
1.98597
3.20183
4.98731
7.7234
11.7548
16.3878
18.0422
16.9294
16.4617
15.3858
13.5962
12.7595
11.7379
10.3588
9.63853
8.48609
6.75782
5.62153
5.14686
4.65507
4.02804
3.65877
3.26059
2.7832
2.48991
2.19406
1.86732
1.72383
1.7423
1.66358
1.46932
1.35263
1.22033
1.05845
0.968856
0.875304
0.764877
0.701464
0.61293
0.489294
0.406127
0.367776
0.330423
0.286234
0.259956
0.23214
0.199557
0.179776
0.159715
0.137734
0.129189
0.132573
0.128737
0.116805
0.11145
0.104301
0.0945734
0.0897334
0.0753507
0.049891
0.0269857
0.00834954
0.310441
0.977309
1.79876
2.93963
4.68786
7.54742
12.1695
18.0788
19.8037
17.7377
17.3883
16.1927
13.8682
13.2122
12.1783
10.5096
10.0131
8.82979
6.70741
5.4815
5.17295
4.72136
3.99729
3.69201
3.30175
2.75155
2.49458
2.19821
1.81146
1.68012
1.78108
1.71714
1.47411
1.37475
1.24234
1.05226
0.979055
0.88842
0.762393
0.715999
0.627311
0.479455
0.391524
0.364733
0.330782
0.281189
0.259891
0.233064
0.196034
0.179157
0.159237
0.133203
0.1258
0.135504
0.132886
0.117603
0.114353
0.107737
0.0967985
0.0958632
0.0815932
0.0514264
0.0266888
0.00809293
0.271573
0.857452
1.58886
2.63019
4.29408
7.20875
12.4417
20.1004
21.8548
18.3446
18.3562
17.0736
13.967
13.6816
12.6609
10.5406
10.4378
9.24929
6.57255
5.25892
5.21176
4.81113
3.92742
3.73204
3.35658
2.69296
2.50287
2.21093
1.73336
1.61588
1.83411
1.7857
1.46482
1.39911
1.26897
1.03506
0.990503
0.904393
0.752326
0.733996
0.646791
0.464259
0.371652
0.36252
0.332643
0.273632
0.260368
0.234937
0.19072
0.178861
0.159374
0.127072
0.120907
0.139501
0.138081
0.117203
0.117452
0.111437
0.0979692
0.103
0.0891195
0.0523724
0.0257886
0.00763633
0.23061
0.729974
1.36076
2.27923
3.80695
6.67993
12.4875
22.5557
24.2816
18.6137
19.3963
18.0773
13.812
14.1956
13.2197
10.3918
10.94
9.78207
6.32312
4.93413
5.28016
4.93971
3.79976
3.78625
3.43452
2.59509
2.51982
2.23952
1.62686
1.52477
1.90842
1.87536
1.43338
1.42812
1.30363
1.00188
1.00513
0.925509
0.730885
0.757304
0.673855
0.441782
0.345274
0.362242
0.337004
0.262365
0.261902
0.238393
0.18278
0.179256
0.16064
0.118901
0.114042
0.145094
0.144772
0.114953
0.120967
0.11563
0.0974647
0.111484
0.0983549
0.0523809
0.0241537
0.00695852
0.18834
0.597448
1.11937
1.89437
3.23236
5.93699
12.1868
25.5781
27.2001
18.3495
20.5608
19.2753
13.2881
14.797
13.9038
9.97669
11.5581
10.4776
5.91727
4.48329
5.40108
5.12734
3.58664
3.86547
3.5485
2.43973
2.55262
2.29375
1.48375
1.39839
2.01318
1.99418
1.36803
1.4655
1.35111
0.945493
1.02584
0.955009
0.692518
0.788483
0.711759
0.409334
0.310879
0.365392
0.345172
0.245596
0.265236
0.244297
0.170979
0.180856
0.163722
0.108107
0.104574
0.152982
0.153558
0.109904
0.125245
0.120672
0.0943923
0.12178
0.109854
0.0509564
0.0216693
0.00605302
0.145512
0.462376
0.86983
1.48471
2.58188
4.96444
11.3714
29.3384
30.7653
17.279
21.933
20.7685
12.2329
15.5497
14.7824
9.17247
12.3461
11.4001
5.29805
3.87831
5.60484
5.40046
3.24833
3.98528
3.71606
2.20085
2.61149
2.38637
1.29333
1.22578
2.16023
2.15271
1.25204
1.51693
1.41806
0.855656
1.05682
0.997396
0.629334
0.831072
0.764699
0.36323
0.266681
0.373934
0.358854
0.22075
0.271428
0.253817
0.153545
0.184384
0.169517
0.0939361
0.091682
0.164063
0.165232
0.100715
0.130807
0.127095
0.0874991
0.134521
0.124327
0.0474082
0.0182607
0.0049333
0.102805
0.327087
0.61718
1.06037
1.87295
3.76236
9.81009
34.0526
35.1828
15.029
23.6386
22.6948
10.4226
16.5457
15.9499
7.80962
13.3782
12.6308
4.38938
3.08709
5.93024
5.79334
2.72951
4.16789
3.96054
1.84224
2.71077
2.53362
1.04192
0.992986
2.36455
2.3647
1.06233
1.59071
1.51343
0.718133
1.10406
1.05881
0.530396
0.889932
0.837985
0.29853
0.210639
0.390376
0.380259
0.184229
0.281967
0.268513
0.128011
0.19085
0.179164
0.0754288
0.0743087
0.179476
0.180838
0.0855319
0.13841
0.135659
0.0750634
0.150566
0.142678
0.040791
0.0139224
0.00363547
0.0608137
0.193648
0.366112
0.631749
1.12845
2.35577
7.19222
39.9895
40.723
11.0993
25.8602
25.2373
7.55417
17.9135
17.5329
5.65888
14.7556
14.271
3.09148
2.07419
6.42568
6.35001
1.95506
4.44428
4.31249
1.31467
2.87037
2.75571
0.712307
0.682557
2.64472
2.64796
0.767745
1.69871
1.64903
0.513604
1.17591
1.14741
0.380895
0.971662
0.938212
0.208746
0.140505
0.417839
0.412225
0.131147
0.298922
0.290423
0.0910251
0.201643
0.194082
0.051388
0.051125
0.200634
0.201741
0.0618521
0.149119
0.147423
0.0547682
0.171058
0.16603
0.0298345
0.00875493
0.00221647
0.0200333
0.0638135
0.120757
0.208812
0.375206
0.806657
3.10813
47.4794
47.7371
4.83213
28.8544
28.6331
3.22591
19.8287
19.6964
2.41669
16.6145
16.4442
1.27584
0.802092
7.14974
7.12655
0.825302
4.85677
4.8111
0.552747
3.11743
3.07715
0.28328
0.273099
3.0234
3.02532
0.327126
1.85744
1.84008
0.216394
1.28368
1.27386
0.161207
1.08511
1.07341
0.0855111
0.0539023
0.4601
0.458369
0.0550124
0.325104
0.32217
0.0381316
0.218646
0.21599
0.0203472
0.0204887
0.229259
0.229703
0.0263668
0.164389
0.163814
0.0235572
0.197509
0.195765
0.0128622
0.00300782
0.000745856
)
;

boundaryField
{
    left
    {
        type            calculated;
        value           uniform 0;
    }
    right
    {
        type            calculated;
        value           uniform 0;
    }
    interface
    {
        type            calculated;
        value           nonuniform List<scalar> 
64
(
0.0200333
0.0638135
0.120757
0.208812
0.375206
0.806657
3.10813
47.4794
47.7371
4.83213
28.8544
28.6331
3.22591
19.8287
19.6964
2.41669
16.6145
16.4442
1.27584
0.802092
7.14974
7.12655
0.825302
4.85677
4.8111
0.552747
3.11743
3.07715
0.28328
0.273099
3.0234
3.02532
0.327126
1.85744
1.84008
0.216394
1.28368
1.27386
0.161207
1.08511
1.07341
0.0855111
0.0539023
0.4601
0.458369
0.0550124
0.325104
0.32217
0.0381316
0.218646
0.21599
0.0203472
0.0204887
0.229259
0.229703
0.0263668
0.164389
0.163814
0.0235572
0.197509
0.195765
0.0128622
0.00300782
0.000745856
)
;
    }
    bottom
    {
        type            calculated;
        value           nonuniform List<scalar> 
64
(
0.0197691
0.0590662
0.097616
0.134859
0.170171
0.202862
0.232225
0.257591
0.278401
0.294266
0.305009
0.310679
0.311537
0.308019
0.300686
0.290176
0.277157
0.262286
0.246182
0.2294
0.212415
0.195621
0.179326
0.163757
0.149072
0.135366
0.122686
0.111041
0.100405
0.0907327
0.0819604
0.0740162
0.0668242
0.0603097
0.0544026
0.0490392
0.0441637
0.0397281
0.0356914
0.032019
0.0286816
0.0256537
0.0229132
0.0204396
0.0182136
0.0162164
0.0144295
0.0128344
0.011413
0.0101473
0.00901959
0.0080126
0.00710956
0.00629435
0.0055516
0.004867
0.0042275
0.0036216
0.00303952
0.00247341
0.00191728
0.00136691
0.000819477
0.000273105
)
;
    }
    defaultFaces
    {
        type            empty;
    }
}


// ************************************************************************* //
