/*--------------------------------*- C++ -*----------------------------------*\
| =========                 |                                                 |
| \\      /  F ield         | OpenFOAM: The Open Source CFD Toolbox           |
|  \\    /   O peration     | Version:  5.x                                   |
|   \\  /    A nd           | Web:      www.OpenFOAM.org                      |
|    \\/     M anipulation  |                                                 |
\*---------------------------------------------------------------------------*/
FoamFile
{
    version     2.0;
    format      ascii;
    class       volScalarField;
    location    "2.7";
    object      gradTy;
}
// * * * * * * * * * * * * * * * * * * * * * * * * * * * * * * * * * * * * * //

dimensions      [0 -1 0 1 0 0 0];

internalField   nonuniform List<scalar> 
2048
(
-21.3483
-21.262
-21.0906
-20.8362
-20.5022
-20.0936
-19.6168
-19.0798
-18.4921
-17.8643
-17.2074
-16.5329
-15.8516
-15.1737
-14.5083
-13.8629
-13.2437
-12.6556
-12.1017
-11.5841
-11.1037
-10.6603
-10.2532
-9.88094
-9.5417
-9.23341
-8.95383
-8.70069
-8.47175
-8.26483
-8.0779
-7.90908
-7.75664
-7.61903
-7.49486
-7.38288
-7.28199
-7.19118
-7.10955
-7.03626
-6.97058
-6.91179
-6.85925
-6.81236
-6.77057
-6.73335
-6.70022
-6.67076
-6.64455
-6.62125
-6.60054
-6.58213
-6.56578
-6.55129
-6.53847
-6.52719
-6.51734
-6.50883
-6.50161
-6.49563
-6.49086
-6.48729
-6.48492
-6.48373
-21.4178
-21.3308
-21.1576
-20.9004
-20.5625
-20.1486
-19.6652
-19.1206
-18.5244
-17.8875
-17.2214
-16.538
-15.8485
-15.1633
-14.4917
-13.8413
-13.2183
-12.6275
-12.0719
-11.5536
-11.0732
-10.6305
-10.2245
-9.85372
-9.51615
-9.20964
-8.93189
-8.68056
-8.45336
-8.24808
-8.06267
-7.89522
-7.74403
-7.60753
-7.48436
-7.37328
-7.2732
-7.18311
-7.10214
-7.02946
-6.96433
-6.90606
-6.85401
-6.80757
-6.76619
-6.72935
-6.69657
-6.66743
-6.64151
-6.61847
-6.59798
-6.57977
-6.56358
-6.54923
-6.53652
-6.52533
-6.51555
-6.50709
-6.4999
-6.49394
-6.48918
-6.48562
-6.48325
-6.48206
-21.5501
-21.4615
-21.2851
-21.0227
-20.6773
-20.2535
-19.7577
-19.1984
-18.5858
-17.9315
-17.2478
-16.5473
-15.8421
-15.1429
-14.4594
-13.7995
-13.1693
-12.5735
-12.0149
-11.4953
-11.0151
-10.5738
-10.17
-9.80205
-9.46771
-9.16464
-8.89039
-8.64252
-8.41863
-8.21647
-8.03393
-7.8691
-7.72026
-7.58587
-7.46458
-7.35519
-7.25661
-7.16789
-7.08816
-7.01662
-6.95254
-6.89525
-6.84411
-6.79852
-6.75792
-6.72181
-6.6897
-6.66115
-6.63578
-6.61322
-6.59315
-6.57531
-6.55944
-6.54535
-6.53285
-6.52183
-6.51217
-6.5038
-6.49667
-6.49074
-6.48601
-6.48246
-6.48009
-6.4789
-21.7377
-21.6471
-21.4664
-21.1969
-20.8412
-20.4034
-19.89
-19.3096
-18.6732
-17.9936
-17.2844
-16.5593
-15.8314
-15.1123
-14.4121
-13.7387
-13.0984
-12.4957
-11.9331
-11.412
-10.9323
-10.4931
-10.0927
-9.72893
-9.39929
-9.10119
-8.83198
-8.58905
-8.36989
-8.17215
-7.99368
-7.83254
-7.687
-7.55556
-7.43689
-7.32984
-7.23337
-7.14655
-7.06855
-6.99861
-6.93601
-6.88008
-6.83022
-6.78582
-6.74633
-6.71123
-6.68006
-6.65236
-6.62775
-6.60587
-6.58641
-6.56908
-6.55365
-6.53992
-6.52772
-6.51693
-6.50744
-6.49919
-6.49214
-6.48626
-6.48155
-6.47801
-6.47564
-6.47445
-21.9744
-21.8815
-21.6958
-21.418
-21.0497
-20.5945
-20.0586
-19.451
-18.784
-18.0716
-17.3292
-16.5724
-15.8154
-15.071
-14.3495
-13.6594
-13.0067
-12.3956
-11.8283
-11.3057
-10.8272
-10.3911
-9.99523
-9.63699
-9.31349
-9.02181
-8.75905
-8.52242
-8.30925
-8.1171
-7.94375
-7.78721
-7.64578
-7.51799
-7.40256
-7.2984
-7.20452
-7.12005
-7.04419
-6.97621
-6.91544
-6.86122
-6.81294
-6.77003
-6.73192
-6.6981
-6.66809
-6.64146
-6.6178
-6.59677
-6.57805
-6.56137
-6.54649
-6.53321
-6.52137
-6.51086
-6.50158
-6.49347
-6.48651
-6.48068
-6.47599
-6.47246
-6.47009
-6.46889
-22.2543
-22.1591
-21.9684
-21.6815
-21.2992
-20.8237
-20.261
-19.6206
-18.9159
-18.1632
-17.3804
-16.5849
-15.7928
-15.0179
-14.2713
-13.5616
-12.8946
-12.2742
-11.7021
-11.1783
-10.7017
-10.2699
-9.8799
-9.52859
-9.21264
-8.92876
-8.67379
-8.4447
-8.23868
-8.05316
-7.88582
-7.73467
-7.59802
-7.47444
-7.36275
-7.26191
-7.17101
-7.08924
-7.01585
-6.95015
-6.89149
-6.83925
-6.79283
-6.75166
-6.71517
-6.68284
-6.6542
-6.6288
-6.60626
-6.58622
-6.56837
-6.55244
-6.5382
-6.52544
-6.51403
-6.50383
-6.49478
-6.48683
-6.47996
-6.47418
-6.4695
-6.46596
-6.46358
-6.46238
-22.5722
-22.4751
-22.2797
-21.984
-21.5868
-21.089
-20.4956
-19.8166
-19.0673
-18.2667
-17.4358
-16.5948
-15.7619
-14.952
-14.177
-13.4453
-12.7626
-12.1323
-11.5555
-11.0313
-10.5577
-10.1315
-9.74882
-9.40589
-9.09888
-8.82413
-8.57817
-8.35779
-8.15996
-7.98198
-7.82145
-7.67634
-7.545
-7.4261
-7.31852
-7.22133
-7.13371
-7.05491
-6.98424
-6.92105
-6.86474
-6.81471
-6.77037
-6.73115
-6.69648
-6.66584
-6.63873
-6.61473
-6.59344
-6.5745
-6.55763
-6.54255
-6.52901
-6.51684
-6.50589
-6.49604
-6.48723
-6.47943
-6.47265
-6.4669
-6.46222
-6.45866
-6.45626
-6.45505
-22.9232
-22.8248
-22.6258
-22.3222
-21.9103
-21.3887
-20.7611
-20.0379
-19.2367
-18.3803
-17.4936
-16.6003
-15.721
-14.8721
-14.0656
-13.3102
-12.6109
-11.9706
-11.3895
-10.8661
-10.3969
-9.97775
-9.60394
-9.27086
-8.97415
-8.70978
-8.47402
-8.2634
-8.07472
-7.9051
-7.75205
-7.61351
-7.4879
-7.37399
-7.27079
-7.1775
-7.09338
-7.01774
-6.94998
-6.88949
-6.83571
-6.78807
-6.746
-6.70892
-6.67625
-6.64745
-6.62202
-6.59953
-6.5796
-6.56188
-6.54607
-6.5319
-6.51914
-6.5076
-6.49713
-6.48765
-6.47908
-6.47144
-6.46472
-6.45899
-6.45429
-6.45069
-6.44826
-6.44703
-23.3022
-23.2037
-23.003
-22.6934
-22.268
-21.722
-21.057
-20.2838
-19.4229
-18.5022
-17.5516
-16.5992
-15.6684
-14.7767
-13.9365
-13.1559
-12.4396
-11.7895
-11.2052
-10.6838
-10.2207
-9.81041
-9.44708
-9.12533
-8.84026
-8.58747
-8.36297
-8.16309
-7.98443
-7.82391
-7.67891
-7.54736
-7.42776
-7.31905
-7.22041
-7.13116
-7.05067
-6.97835
-6.91362
-6.85596
-6.80484
-6.75975
-6.72011
-6.68532
-6.6548
-6.62797
-6.60434
-6.58348
-6.565
-6.54857
-6.53389
-6.5207
-6.50876
-6.49788
-6.48793
-6.47881
-6.47049
-6.46298
-6.45631
-6.45056
-6.44581
-6.44216
-6.43968
-6.43842
-23.7044
-23.6073
-23.4075
-23.0952
-22.6587
-22.0888
-21.3837
-20.5543
-19.6251
-18.6307
-17.6078
-16.5895
-15.6021
-14.6645
-13.7888
-12.9823
-12.2488
-11.5896
-11.0032
-10.4856
-10.0307
-9.63113
-9.28001
-8.97106
-8.69887
-8.45876
-8.24652
-8.05827
-7.89042
-7.73966
-7.60319
-7.47893
-7.36552
-7.26211
-7.1681
-7.08296
-7.00619
-6.93726
-6.87565
-6.8209
-6.77255
-6.7301
-6.69302
-6.66068
-6.63243
-6.6077
-6.58596
-6.5668
-6.54984
-6.53476
-6.52127
-6.50911
-6.49804
-6.48785
-6.47842
-6.46967
-6.46158
-6.45418
-6.44754
-6.44174
-6.4369
-6.43316
-6.43061
-6.42932
-24.125
-24.0312
-23.836
-23.5253
-23.0816
-22.4893
-21.7418
-20.8496
-19.8425
-18.764
-17.6597
-16.5686
-15.5204
-14.5343
-13.6218
-12.7891
-12.0388
-11.3713
-10.7844
-10.2728
-9.82823
-9.44153
-9.10438
-8.80968
-8.55154
-8.32509
-8.126
-7.95021
-7.79392
-7.65352
-7.52598
-7.40917
-7.30199
-7.20387
-7.11447
-7.03347
-6.96045
-6.89494
-6.83649
-6.78469
-6.73915
-6.69945
-6.66505
-6.63527
-6.60941
-6.58687
-6.5671
-6.5497
-6.53431
-6.52064
-6.50838
-6.4973
-6.48712
-6.47765
-6.46874
-6.46035
-6.45247
-6.44516
-6.43849
-6.43261
-6.42765
-6.42379
-6.42115
-6.41982
-24.559
-24.4709
-24.2847
-23.9814
-23.5361
-22.9245
-22.1331
-21.1708
-20.0744
-18.9002
-17.7048
-16.5342
-15.4211
-14.3849
-13.4351
-12.5764
-11.8099
-11.1352
-10.5496
-10.0465
-9.61485
-9.24325
-8.92185
-8.64274
-8.39969
-8.18777
-8.00261
-7.84003
-7.69599
-7.56653
-7.44822
-7.33894
-7.2379
-7.14496
-7.06008
-6.98316
-6.91387
-6.85179
-6.7965
-6.74766
-6.70495
-6.66805
-6.63644
-6.60934
-6.58599
-6.5657
-6.54797
-6.53237
-6.51859
-6.50634
-6.49536
-6.48538
-6.47614
-6.46739
-6.45901
-6.45096
-6.44326
-6.436
-6.42928
-6.42326
-6.41813
-6.41412
-6.41137
-6.40999
-25.0012
-24.9217
-24.75
-24.4614
-24.022
-23.3961
-22.5599
-21.5191
-20.3201
-19.037
-17.7403
-16.4835
-15.3024
-14.2151
-13.2283
-12.3443
-11.5625
-10.8817
-10.2995
-9.80768
-9.39205
-9.03791
-8.734
-8.47174
-8.24461
-8.04795
-7.87741
-7.72868
-7.59759
-7.47964
-7.37083
-7.26897
-7.17385
-7.08587
-7.00534
-6.93243
-6.86685
-6.80816
-6.75601
-6.71009
-6.67018
-6.63613
-6.60741
-6.58313
-6.56236
-6.54441
-6.52874
-6.51496
-6.5028
-6.49201
-6.48233
-6.47349
-6.4652
-6.45719
-6.44932
-6.44159
-6.43405
-6.4268
-6.41998
-6.41377
-6.40842
-6.40421
-6.40132
-6.3999
-25.4466
-25.3789
-25.2281
-24.963
-24.5393
-23.9064
-23.0256
-21.8968
-20.5787
-19.1715
-17.7631
-16.4135
-15.1623
-14.0244
-13.0013
-12.0933
-11.2974
-10.6112
-10.0345
-9.55766
-9.16142
-8.82715
-8.5424
-8.29807
-8.08751
-7.90665
-7.75131
-7.61702
-7.49955
-7.39375
-7.29464
-7.19993
-7.11036
-7.02704
-6.95063
-6.88161
-6.81971
-6.76437
-6.7153
-6.67223
-6.63505
-6.60386
-6.57816
-6.55683
-6.53874
-6.52316
-6.50958
-6.49762
-6.48708
-6.47776
-6.46939
-6.46172
-6.45443
-6.44716
-6.43977
-6.43233
-6.42492
-6.41764
-6.41068
-6.40422
-6.39857
-6.39412
-6.39108
-6.38961
-25.8901
-25.8377
-25.7148
-25.4837
-25.0879
-24.4583
-23.5349
-22.3068
-20.8491
-19.3006
-17.7696
-16.3212
-14.9991
-13.8123
-12.7545
-11.8243
-11.0153
-10.3242
-9.7553
-9.29759
-8.92469
-8.61262
-8.34856
-8.12309
-7.92942
-7.76475
-7.62509
-7.5057
-7.4026
-7.30969
-7.22043
-7.13239
-7.04784
-6.9688
-6.8962
-6.83098
-6.77274
-6.72067
-6.67462
-6.63429
-6.5997
-6.57138
-6.54886
-6.53063
-6.51529
-6.50212
-6.49062
-6.48045
-6.47153
-6.46366
-6.45662
-6.45016
-6.4439
-6.43739
-6.43045
-6.42325
-6.41593
-6.4086
-6.40144
-6.39467
-6.38864
-6.3839
-6.38069
-6.37917
-26.3266
-26.2932
-26.2058
-26.0206
-25.6677
-25.0553
-24.0937
-22.7529
-21.129
-19.4199
-17.7564
-16.2032
-14.8109
-13.579
-12.4882
-11.5383
-10.7175
-10.0207
-9.46191
-9.02871
-8.68378
-8.39597
-8.15391
-7.94808
-7.77123
-7.62299
-7.49944
-7.39524
-7.30731
-7.22826
-7.14901
-7.0668
-6.98659
-6.91141
-6.84225
-6.78074
-6.72619
-6.67728
-6.63418
-6.59648
-6.56424
-6.53878
-6.51965
-6.50472
-6.49217
-6.48143
-6.47201
-6.46357
-6.45622
-6.44982
-6.44408
-6.43888
-6.43372
-6.42796
-6.42141
-6.41442
-6.40716
-6.39973
-6.39234
-6.38519
-6.37868
-6.37358
-6.37019
-6.36864
-26.7514
-26.7405
-26.6965
-26.5702
-26.2783
-25.7014
-24.7096
-23.2404
-21.4152
-19.5243
-17.72
-16.0557
-14.5964
-13.3253
-12.2031
-11.2368
-10.406
-9.70062
-9.15414
-8.75238
-8.44091
-8.17876
-7.95979
-7.77431
-7.61364
-7.48196
-7.37497
-7.28595
-7.21413
-7.15029
-7.0812
-7.00351
-6.92678
-6.85508
-6.78885
-6.73105
-6.68031
-6.63439
-6.5942
-6.55899
-6.52871
-6.50608
-6.49065
-6.47926
-6.46952
-6.4612
-6.45383
-6.44703
-6.44123
-6.43627
-6.43183
-6.42793
-6.42395
-6.41895
-6.4127
-6.40587
-6.39866
-6.39108
-6.38342
-6.37582
-6.3687
-6.36318
-6.35961
-6.35804
-27.1599
-27.1749
-27.1822
-27.1287
-26.9183
-26.4011
-25.3927
-23.7767
-21.7019
-19.6072
-17.6576
-15.8742
-14.3541
-13.0531
-11.8996
-10.9216
-10.0831
-9.3631
-8.8312
-8.47018
-8.19876
-7.96238
-7.76743
-7.60309
-7.4571
-7.34209
-7.25226
-7.17793
-7.12333
-7.07661
-7.0179
-6.94267
-6.86848
-6.8
-6.73601
-6.682
-6.63535
-6.5921
-6.55484
-6.52203
-6.4931
-6.47326
-6.46199
-6.45446
-6.44744
-6.44153
-6.4362
-6.43088
-6.42658
-6.42308
-6.41987
-6.41733
-6.41467
-6.41045
-6.40436
-6.39763
-6.39047
-6.38269
-6.37475
-6.36663
-6.35871
-6.3527
-6.34898
-6.34744
-27.5478
-27.5918
-27.6576
-27.6911
-27.5859
-27.1588
-26.1552
-24.3721
-21.9799
-19.6605
-17.5679
-15.6531
-14.0828
-12.7661
-11.5777
-10.5949
-9.75269
-9.00637
-8.49148
-8.18399
-7.96068
-7.74787
-7.57782
-7.43591
-7.30171
-7.20368
-7.13199
-7.07097
-7.03496
-7.00819
-6.96021
-6.88418
-6.81158
-6.7464
-6.68356
-6.63365
-6.59161
-6.55047
-6.51628
-6.48586
-6.45728
-6.44021
-6.43378
-6.43052
-6.426
-6.42248
-6.41922
-6.41512
-6.41231
-6.4103
-6.40818
-6.4071
-6.40595
-6.40254
-6.39637
-6.3897
-6.38261
-6.37456
-6.36638
-6.35768
-6.34871
-6.34212
-6.33832
-6.33684
-27.9117
-27.9869
-28.1178
-28.252
-28.2774
-27.9784
-27.0126
-25.0416
-22.2341
-19.6742
-17.4526
-15.3851
-13.7814
-12.4702
-11.2359
-10.2591
-9.4207
-8.62705
-8.13236
-7.89626
-7.73108
-7.53557
-7.39174
-7.27461
-7.14705
-7.06686
-7.01508
-6.96447
-6.94883
-6.94611
-6.90953
-6.8276
-6.75585
-6.69462
-6.63116
-6.58599
-6.54951
-6.50939
-6.47865
-6.45083
-6.42101
-6.40672
-6.40615
-6.40771
-6.4052
-6.40411
-6.40299
-6.39972
-6.39841
-6.39796
-6.39672
-6.3972
-6.39785
-6.3953
-6.38869
-6.38206
-6.37514
-6.36669
-6.35833
-6.34903
-6.33864
-6.33139
-6.32762
-6.3263
-28.2483
-28.3565
-28.5574
-28.805
-28.9878
-28.8628
-27.9839
-25.8075
-22.4404
-19.6365
-17.3189
-15.059
-13.4491
-12.1753
-10.8703
-9.91696
-9.09615
-8.21926
-7.74991
-7.61022
-7.51584
-7.32468
-7.20965
-7.12176
-6.99192
-6.93162
-6.90296
-6.85727
-6.86441
-6.89172
-6.86774
-6.77185
-6.70085
-6.64531
-6.57818
-6.53899
-6.50965
-6.46857
-6.4421
-6.4175
-6.38387
-6.37251
-6.37927
-6.38636
-6.38498
-6.38641
-6.38766
-6.38456
-6.38485
-6.38614
-6.38536
-6.38757
-6.39046
-6.38885
-6.38121
-6.37467
-6.36808
-6.35903
-6.35064
-6.34079
-6.32841
-6.32044
-6.31688
-6.31586
-28.5553
-28.6973
-28.9715
-29.3429
-29.7098
-29.8126
-29.0912
-26.7034
-22.5611
-19.5336
-17.1825
-14.6579
-13.0849
-11.8972
-10.4722
-9.57134
-8.79305
-7.77321
-7.33872
-7.33021
-7.32305
-7.11247
-7.03166
-6.98116
-6.83393
-6.79781
-6.79789
-6.74738
-6.7808
-6.84661
-6.83751
-6.71503
-6.646
-6.59959
-6.52356
-6.49255
-6.47299
-6.42739
-6.40675
-6.3867
-6.34515
-6.33716
-6.35338
-6.36697
-6.36511
-6.36937
-6.37346
-6.36946
-6.3716
-6.37498
-6.37395
-6.37813
-6.38387
-6.38336
-6.37377
-6.36747
-6.36153
-6.35146
-6.34334
-6.3331
-6.3179
-6.30918
-6.30613
-6.30557
-28.8309
-29.0065
-29.3553
-29.858
-30.4339
-30.825
-30.3598
-27.7801
-22.5373
-19.3502
-17.0732
-14.1549
-12.6879
-11.6604
-10.0258
-9.22521
-8.53302
-7.27311
-6.8918
-7.06201
-7.16396
-6.8932
-6.85751
-6.85863
-6.66881
-6.66515
-6.70357
-6.63166
-6.69666
-6.81274
-6.82267
-6.6539
-6.59057
-6.55941
-6.46555
-6.44655
-6.44103
-6.38475
-6.37272
-6.35978
-6.30376
-6.30017
-6.32879
-6.3502
-6.3452
-6.35294
-6.36073
-6.3541
-6.35863
-6.36471
-6.36223
-6.36876
-6.3782
-6.37911
-6.36609
-6.36038
-6.35563
-6.34383
-6.33647
-6.32619
-6.30688
-6.29752
-6.29538
-6.29549
-29.0743
-29.2822
-29.7046
-30.3424
-31.1479
-31.8922
-31.8165
-29.1151
-22.2796
-19.0701
-17.0412
-13.5075
-12.2575
-11.5029
-9.50339
-8.88155
-8.34891
-6.69404
-6.40086
-6.8131
-7.05433
-6.65655
-6.68662
-6.76313
-6.48949
-6.53332
-6.62582
-6.50519
-6.61021
-6.79241
-6.82883
-6.58328
-6.53373
-6.528
-6.40136
-6.40087
-6.41612
-6.33878
-6.34013
-6.33881
-6.25803
-6.26093
-6.30594
-6.33704
-6.32455
-6.33707
-6.35005
-6.33799
-6.34589
-6.3557
-6.34984
-6.35932
-6.3736
-6.37648
-6.35776
-6.35334
-6.35064
-6.33587
-6.3301
-6.32046
-6.29507
-6.28534
-6.28469
-6.28574
-29.2851
-29.5233
-30.016
-30.788
-31.8375
-32.9996
-33.486
-30.825
-21.6541
-18.678
-17.1672
-12.6492
-11.7936
-11.4822
-8.85954
-8.54334
-8.28991
-5.9975
-5.85703
-6.59278
-7.01625
-6.38545
-6.51821
-6.70828
-6.28469
-6.402
-6.57361
-6.36052
-6.51933
-6.78818
-6.86415
-6.49515
-6.47465
-6.51045
-6.32666
-6.3554
-6.40185
-6.28646
-6.30912
-6.32692
-6.2054
-6.21885
-6.28541
-6.32888
-6.30207
-6.32171
-6.34233
-6.32037
-6.33337
-6.3486
-6.33625
-6.34964
-6.37028
-6.37609
-6.34817
-6.3463
-6.34699
-6.32719
-6.32427
-6.31647
-6.282
-6.27258
-6.27415
-6.27643
-29.4637
-29.7293
-30.2869
-31.1875
-32.4866
-34.1245
-35.3861
-33.0837
-20.4632
-18.1619
-17.5746
-11.4776
-11.2973
-11.6831
-8.02311
-8.21373
-8.4283
-5.1252
-5.25248
-6.41191
-7.08071
-6.05314
-6.35155
-6.71444
-6.03703
-6.27109
-6.56037
-6.18649
-6.42177
-6.80261
-6.94048
-6.37747
-6.41265
-6.51458
-6.2348
-6.31012
-6.40358
-6.22314
-6.27984
-6.32878
-6.14206
-6.17341
-6.2679
-6.32772
-6.27604
-6.30684
-6.33893
-6.30008
-6.32108
-6.34436
-6.3207
-6.33961
-6.36843
-6.37886
-6.33641
-6.33922
-6.34536
-6.31719
-6.31907
-6.31509
-6.26702
-6.25922
-6.26391
-6.2677
-29.611
-29.9006
-30.5157
-31.5346
-33.0777
-35.2343
-37.5179
-36.1476
-18.4211
-17.517
-18.4456
-9.83911
-10.7726
-12.2291
-6.88626
-7.8963
-8.86835
-3.99054
-4.58326
-6.28196
-7.29091
-5.61937
-6.18645
-6.81133
-5.7204
-6.14098
-6.60569
-5.96671
-6.31563
-6.83778
-7.07485
-6.21257
-6.34742
-6.55188
-6.11584
-6.26518
-6.42918
-6.14181
-6.25248
-6.35116
-6.06234
-6.12434
-6.25416
-6.33635
-6.2439
-6.29247
-6.34185
-6.2754
-6.3091
-6.34436
-6.30207
-6.3291
-6.36824
-6.38611
-6.32117
-6.33212
-6.34678
-6.30495
-6.31459
-6.31759
-6.24913
-6.2453
-6.25417
-6.25969
-29.7284
-30.038
-30.702
-31.8243
-33.5939
-36.2865
-39.8524
-40.3879
-15.1213
-16.752
-20.0414
-7.50829
-10.2284
-13.2954
-5.29056
-7.59567
-9.75745
-2.46729
-3.8538
-6.21315
-7.7067
-5.02544
-6.02386
-7.04136
-5.29664
-6.01296
-6.73739
-5.67743
-6.20016
-6.89444
-7.29144
-5.97509
-6.27942
-6.63882
-5.95524
-6.22101
-6.48981
-6.0322
-6.22729
-6.40359
-5.95804
-6.07194
-6.24487
-6.35861
-6.20191
-6.27868
-6.35393
-6.2438
-6.29753
-6.3506
-6.27872
-6.31809
-6.3698
-6.3997
-6.30055
-6.32505
-6.35267
-6.28915
-6.31086
-6.32571
-6.22686
-6.231
-6.24512
-6.25251
-29.8179
-30.1432
-30.8463
-32.0537
-34.0198
-37.2294
-42.3109
-46.3333
-9.99549
-15.8972
-22.7256
-4.16211
-9.68186
-15.1259
-3.00964
-7.31859
-11.3
-0.375
-3.08378
-6.21119
-8.41031
-4.18809
-5.86688
-7.46368
-4.71121
-5.88987
-6.99404
-5.2849
-6.07702
-6.97067
-7.62417
-5.62933
-6.2103
-6.79837
-5.73217
-6.17855
-6.60103
-5.87961
-6.2046
-6.49931
-5.81734
-6.01746
-6.24038
-6.39975
-6.14468
-6.26563
-6.3791
-6.20162
-6.28655
-6.36575
-6.24828
-6.30668
-6.37294
-6.42218
-6.2718
-6.31808
-6.36502
-6.26783
-6.30783
-6.34183
-6.19805
-6.21664
-6.23698
-6.24619
-29.8815
-30.2183
-30.9502
-32.2218
-34.3434
-38.0061
-44.7379
-54.7233
-2.26322
-15.0154
-26.9935
0.651401
-9.16346
-18.0529
0.271931
-7.07541
-13.7739
2.53941
-2.31778
-6.27214
-9.5136
-2.99203
-5.72205
-8.15893
-3.88799
-5.77698
-7.42795
-4.74189
-5.95216
-7.05994
-8.11982
-5.12607
-6.14356
-7.06174
-5.41747
-6.13946
-6.78398
-5.66356
-6.18488
-6.65625
-5.62364
-5.96369
-6.24035
-6.46682
-6.06473
-6.25359
-6.42261
-6.14366
-6.27636
-6.39336
-6.20733
-6.29518
-6.37706
-6.45701
-6.23109
-6.31132
-6.38642
-6.23821
-6.30528
-6.3691
-6.15955
-6.20278
-6.22984
-6.24066
-29.9214
-30.2656
-31.0162
-32.33
-34.5578
-38.5607
-46.8654
-66.5742
9.12859
-14.2167
-33.5033
7.55048
-8.72335
-22.5201
4.98351
-6.88231
-17.5502
6.62416
-1.63844
-6.3749
-11.1671
-1.28107
-5.60108
-9.23476
-2.72301
-5.68321
-8.10851
-3.98356
-5.83844
-7.14839
-8.84205
-4.39869
-6.08541
-7.47039
-4.97122
-6.10649
-7.06685
-5.35605
-6.16879
-6.89823
-5.35397
-5.91571
-6.24314
-6.5692
-5.95174
-6.24298
-6.49137
-6.06269
-6.26727
-6.43803
-6.15107
-6.2842
-6.38084
-6.50876
-6.17307
-6.30485
-6.42027
-6.19637
-6.30273
-6.41162
-6.10691
-6.19021
-6.22364
-6.23567
-29.9402
-30.2879
-31.0475
-32.3818
-34.6626
-38.8491
-48.2678
-83.2563
25.5765
-13.6773
-43.1121
17.3621
-8.44017
-29.108
11.6964
-6.76458
-23.1153
12.3489
-1.18397
-6.47142
-13.5715
1.15158
-5.52358
-10.8325
-1.07791
-5.62331
-9.12666
-2.92311
-5.75976
-7.21197
-9.87683
-3.35936
-6.04653
-8.07897
-4.34069
-6.08467
-7.48712
-4.92046
-6.15803
-7.25712
-4.97799
-5.88279
-6.24596
-6.71999
-5.79272
-6.23519
-6.59507
-5.94973
-6.26043
-6.50639
-6.07369
-6.27569
-6.3827
-6.58421
-6.09135
-6.29954
-6.47163
-6.1378
-6.30012
-6.47546
-6.03476
-6.18097
-6.21883
-6.23157
)
;

boundaryField
{
    left
    {
        type            calculated;
        value           nonuniform List<scalar> 
32
(
-21.3483
-21.4178
-21.5501
-21.7377
-21.9744
-22.2543
-22.5722
-22.9232
-23.3022
-23.7044
-24.125
-24.559
-25.0012
-25.4466
-25.8901
-26.3266
-26.7514
-27.1599
-27.5478
-27.9117
-28.2483
-28.5553
-28.8309
-29.0743
-29.2851
-29.4637
-29.611
-29.7284
-29.8179
-29.8815
-29.9214
-29.9402
)
;
    }
    right
    {
        type            calculated;
        value           nonuniform List<scalar> 
32
(
-6.48373
-6.48206
-6.4789
-6.47445
-6.46889
-6.46238
-6.45505
-6.44703
-6.43842
-6.42932
-6.41982
-6.40999
-6.3999
-6.38961
-6.37917
-6.36864
-6.35804
-6.34744
-6.33684
-6.3263
-6.31586
-6.30557
-6.29549
-6.28574
-6.27643
-6.2677
-6.25969
-6.25251
-6.24619
-6.24066
-6.23567
-6.23157
)
;
    }
    interface
    {
        type            calculated;
        value           nonuniform List<scalar> 
64
(
-29.9446
-30.2931
-31.0549
-32.3942
-34.688
-38.9225
-48.7231
-93.0013
35.2629
-13.4992
-48.812
23.1139
-8.34974
-33.0141
15.6344
-6.72841
-26.4139
15.6885
-1.03435
-6.5101
-14.99
2.57765
-5.49876
-11.7819
-0.115685
-5.60413
-9.73301
-2.305
-5.73301
-7.23382
-10.4847
-2.7493
-6.0336
-8.44101
-3.97191
-6.07739
-7.73697
-4.66552
-6.15432
-7.47037
-4.75914
-5.87158
-6.24696
-6.80943
-5.69993
-6.23228
-6.6571
-5.88404
-6.25782
-6.5475
-6.02896
-6.27243
-6.38299
-6.62891
-6.04373
-6.29738
-6.50249
-6.10378
-6.29887
-6.51365
-5.99312
-6.17755
-6.21691
-6.22989
)
;
    }
    bottom
    {
        type            calculated;
        value           nonuniform List<scalar> 
64
(
-21.3301
-21.2441
-21.0732
-20.8195
-20.4866
-20.0793
-19.6042
-19.0692
-18.4837
-17.8582
-17.2037
-16.5315
-15.8523
-15.1764
-14.5125
-13.8684
-13.2503
-12.6629
-12.1094
-11.592
-11.1116
-10.6681
-10.2607
-9.88805
-9.54838
-9.23962
-8.95956
-8.70596
-8.47656
-8.26922
-8.08189
-7.91271
-7.75994
-7.62204
-7.4976
-7.3854
-7.2843
-7.19329
-7.11149
-7.03804
-6.97221
-6.91329
-6.86062
-6.81362
-6.77171
-6.73439
-6.70118
-6.67163
-6.64535
-6.62198
-6.60121
-6.58275
-6.56636
-6.55183
-6.53898
-6.52768
-6.51781
-6.50929
-6.50206
-6.49607
-6.4913
-6.48773
-6.48535
-6.48416
)
;
    }
    defaultFaces
    {
        type            empty;
    }
}


// ************************************************************************* //
