/*--------------------------------*- C++ -*----------------------------------*\
| =========                 |                                                 |
| \\      /  F ield         | OpenFOAM: The Open Source CFD Toolbox           |
|  \\    /   O peration     | Version:  5.x                                   |
|   \\  /    A nd           | Web:      www.OpenFOAM.org                      |
|    \\/     M anipulation  |                                                 |
\*---------------------------------------------------------------------------*/
FoamFile
{
    version     2.0;
    format      ascii;
    class       volScalarField;
    location    "2.7";
    object      T;
}
// * * * * * * * * * * * * * * * * * * * * * * * * * * * * * * * * * * * * * //

dimensions      [0 0 0 1 0 0 0];

internalField   nonuniform List<scalar> 
2048
(
9.84676
9.84738
9.8486
9.85043
9.85282
9.85574
9.85916
9.863
9.86721
9.8717
9.8764
9.88123
9.88611
9.89097
9.89574
9.90037
9.90481
9.90903
9.913
9.91672
9.92017
9.92336
9.92628
9.92896
9.9314
9.93362
9.93563
9.93745
9.9391
9.94059
9.94194
9.94315
9.94425
9.94524
9.94614
9.94694
9.94767
9.94832
9.94891
9.94944
9.94991
9.95033
9.95071
9.95105
9.95135
9.95162
9.95186
9.95207
9.95226
9.95243
9.95258
9.95271
9.95283
9.95293
9.95302
9.9531
9.95317
9.95324
9.95329
9.95333
9.95336
9.95339
9.95341
9.95342
9.54647
9.5483
9.55194
9.55735
9.56445
9.57314
9.58328
9.5947
9.6072
9.62055
9.63451
9.64886
9.66334
9.67775
9.69189
9.70561
9.71877
9.73126
9.74303
9.75402
9.76423
9.77364
9.78229
9.79019
9.79739
9.80394
9.80987
9.81525
9.8201
9.8245
9.82846
9.83205
9.83528
9.8382
9.84084
9.84322
9.84536
9.84728
9.84902
9.85057
9.85197
9.85321
9.85433
9.85532
9.85621
9.857
9.8577
9.85833
9.85888
9.85938
9.85982
9.86021
9.86056
9.86086
9.86114
9.86137
9.86158
9.86176
9.86192
9.86204
9.86215
9.86222
9.86227
9.8623
9.25793
9.26094
9.26693
9.27582
9.2875
9.3018
9.3185
9.33732
9.35791
9.37991
9.40292
9.42654
9.45037
9.47406
9.4973
9.5198
9.54137
9.56183
9.58108
9.59905
9.61571
9.63107
9.64516
9.65803
9.66975
9.6804
9.69005
9.69878
9.70668
9.71381
9.72026
9.72608
9.73133
9.73607
9.74036
9.74422
9.74769
9.75083
9.75364
9.75617
9.75843
9.76046
9.76226
9.76388
9.76532
9.7666
9.76774
9.76875
9.76965
9.77046
9.77117
9.7718
9.77237
9.77286
9.77331
9.77369
9.77403
9.77433
9.77458
9.77479
9.77495
9.77507
9.77516
9.7752
8.97993
8.98409
8.99237
9.00468
9.02085
9.04068
9.06385
9.08997
9.11857
9.14912
9.18105
9.2138
9.24682
9.27961
9.31172
9.34278
9.37251
9.40067
9.42712
9.45177
9.4746
9.49562
9.51488
9.53246
9.54845
9.56297
9.57611
9.58801
9.59875
9.60846
9.61723
9.62515
9.6323
9.63875
9.64458
9.64983
9.65456
9.65882
9.66265
9.66609
9.66917
9.67192
9.67438
9.67658
9.67853
9.68027
9.68182
9.68319
9.68442
9.6855
9.68647
9.68733
9.6881
9.68877
9.68937
9.6899
9.69037
9.69077
9.69111
9.69139
9.69162
9.69179
9.6919
9.69196
8.71146
8.71675
8.72728
8.74295
8.76357
8.78887
8.81848
8.85188
8.88846
8.92754
8.96837
9.01021
9.05234
9.0941
9.13494
9.17437
9.21203
9.24765
9.28104
9.31211
9.34083
9.36723
9.39138
9.4134
9.43342
9.45156
9.46798
9.48282
9.49623
9.50833
9.51927
9.52914
9.53805
9.5461
9.55337
9.55992
9.56583
9.57114
9.57592
9.5802
9.58404
9.58747
9.59054
9.59327
9.5957
9.59786
9.59979
9.6015
9.60302
9.60437
9.60557
9.60664
9.60759
9.60844
9.60919
9.60985
9.61042
9.61093
9.61135
9.61171
9.61199
9.6122
9.61235
9.61242
8.45169
8.45808
8.47082
8.48981
8.51484
8.5456
8.58165
8.62236
8.66699
8.71466
8.76443
8.81537
8.86658
8.91726
8.96671
9.01436
9.05977
9.10262
9.14271
9.17993
9.21426
9.24577
9.27455
9.30074
9.32451
9.34604
9.36551
9.38309
9.39896
9.41329
9.42623
9.43791
9.44846
9.45799
9.46659
9.47435
9.48134
9.48763
9.49329
9.49836
9.5029
9.50696
9.51058
9.51381
9.51668
9.51923
9.5215
9.52352
9.52531
9.5269
9.52832
9.52958
9.5307
9.5317
9.53258
9.53337
9.53405
9.53465
9.53516
9.53558
9.53592
9.53617
9.53634
9.53643
8.1999
8.20737
8.22229
8.24454
8.27395
8.31018
8.35272
8.40083
8.45361
8.50998
8.5688
8.62892
8.68924
8.74881
8.8068
8.86255
8.91554
8.96542
9.01196
9.05507
9.09475
9.13108
9.16421
9.19431
9.22158
9.24625
9.26854
9.28865
9.30679
9.32317
9.33795
9.3513
9.36336
9.37425
9.38408
9.39296
9.40095
9.40815
9.41461
9.42041
9.42559
9.43023
9.43436
9.43804
9.44131
9.44422
9.4468
9.44909
9.45113
9.45295
9.45456
9.45599
9.45727
9.45841
9.45942
9.46032
9.4611
9.46179
9.46237
9.46286
9.46325
9.46354
9.46374
9.46384
7.95551
7.96404
7.98108
8.00656
8.04032
8.08202
8.13111
8.18674
8.24783
8.31309
8.38111
8.45053
8.52004
8.58852
8.655
8.71873
8.77914
8.83585
8.88862
8.93736
8.98211
9.02299
9.06018
9.09392
9.12444
9.15201
9.17689
9.19932
9.21954
9.23779
9.25426
9.26913
9.28257
9.29471
9.30568
9.31558
9.3245
9.33252
9.33973
9.34619
9.35197
9.35713
9.36172
9.36581
9.36945
9.37267
9.37554
9.37808
9.38035
9.38236
9.38414
9.38574
9.38716
9.38842
9.38955
9.39055
9.39143
9.39219
9.39285
9.3934
9.39384
9.39418
9.3944
9.39451
7.71805
7.72759
7.74669
7.77533
7.8134
7.86059
7.91631
7.97962
8.04922
8.12359
8.20103
8.27992
8.35872
8.43613
8.51106
8.58269
8.65037
8.71371
8.77247
8.82659
8.87613
8.92127
8.96226
8.99936
9.03288
9.06311
9.09036
9.1149
9.13701
9.15696
9.17496
9.19122
9.20592
9.21921
9.23121
9.24205
9.25181
9.2606
9.26849
9.27556
9.28187
9.28751
9.29253
9.29699
9.30094
9.30446
9.30758
9.31034
9.3128
9.31499
9.31693
9.31867
9.32021
9.32159
9.32283
9.32392
9.32489
9.32573
9.32646
9.32707
9.32756
9.32792
9.32817
9.3283
7.48713
7.49763
7.51871
7.55041
7.59272
7.6454
7.70784
7.77901
7.85739
7.94114
8.02826
8.11681
8.20503
8.29142
8.37478
8.4542
8.52901
8.59879
8.6633
8.72253
8.77659
8.82572
8.87022
8.91042
8.94668
8.97934
9.00873
9.03518
9.059
9.08047
9.09986
9.11738
9.13323
9.14756
9.16051
9.1722
9.18274
9.19222
9.20073
9.20835
9.21516
9.22122
9.22662
9.2314
9.23565
9.23942
9.24276
9.24572
9.24836
9.2507
9.25278
9.25464
9.2563
9.25779
9.25911
9.26029
9.26134
9.26226
9.26305
9.26372
9.26425
9.26466
9.26493
9.26507
7.26242
7.27383
7.29677
7.33141
7.37787
7.43601
7.50528
7.58452
7.67197
7.76544
7.86253
7.96098
8.05875
8.15417
8.24594
8.33306
8.41485
8.49086
8.56089
8.62495
8.68325
8.73607
8.78381
8.82686
8.86561
8.90047
8.93179
8.95995
8.9853
9.00814
9.02877
9.04742
9.0643
9.07958
9.09339
9.10587
9.11711
9.12722
9.13629
9.14442
9.15166
9.15812
9.16385
9.16893
9.17343
9.17742
9.18096
9.18409
9.18688
9.18935
9.19156
9.19353
9.19529
9.19686
9.19827
9.19954
9.20066
9.20165
9.2025
9.20322
9.2038
9.20424
9.20454
9.20469
7.04369
7.05593
7.08059
7.11801
7.16847
7.23203
7.30821
7.39577
7.49265
7.59621
7.70361
7.8122
7.91968
8.02419
8.12432
8.21904
8.30764
8.38969
8.46499
8.53362
8.59586
8.6521
8.7028
8.74843
8.78944
8.82626
8.85931
8.889
8.9157
8.93975
8.96148
8.98115
8.99897
9.01511
9.0297
9.04288
9.05476
9.06545
9.07503
9.08361
9.09125
9.09805
9.10408
9.10941
9.11414
9.11832
9.12202
9.12531
9.12823
9.13082
9.13313
9.13519
9.13704
9.1387
9.14019
9.14152
9.14271
9.14377
9.14468
9.14545
9.14608
9.14656
9.14688
9.14704
6.83075
6.84371
6.86993
6.90991
6.96419
7.03308
7.11625
7.2124
7.31911
7.43319
7.55129
7.6703
7.78762
7.90125
8.00971
8.11192
8.20718
8.29505
8.37537
8.44829
8.51417
8.57354
8.62693
8.67489
8.71792
8.75649
8.79108
8.8221
8.84998
8.8751
8.89781
8.91839
8.93705
8.95396
8.96927
8.98309
8.99555
9.00675
9.0168
9.02578
9.03378
9.04088
9.04717
9.05273
9.05764
9.06199
9.06584
9.06925
9.07228
9.07497
9.07737
9.07951
9.08143
9.08316
9.08472
9.08613
9.08738
9.0885
9.08947
9.0903
9.09097
9.09148
9.09183
9.092
6.62347
6.63704
6.6646
6.70687
6.76472
6.8388
6.92903
7.03407
7.15109
7.27619
7.40538
7.53508
7.6624
7.78518
7.90189
8.01147
8.11321
8.2067
8.29179
8.3687
8.43792
8.50012
8.55594
8.60598
8.65081
8.69094
8.72686
8.75905
8.78795
8.81399
8.83756
8.85894
8.87836
8.89597
8.91192
8.92633
8.93931
8.95099
8.96145
8.9708
8.97911
8.98648
8.99299
8.99874
9.00381
9.0083
9.01226
9.01578
9.0189
9.02168
9.02415
9.02636
9.02835
9.03014
9.03176
9.03323
9.03455
9.03572
9.03675
9.03763
9.03835
9.03889
9.03926
9.03945
6.42175
6.4358
6.46444
6.50869
6.56979
6.64885
6.74618
6.86045
6.98833
7.12501
7.26573
7.40641
7.54384
7.67576
7.80065
7.91746
8.02551
8.12441
8.21401
8.29459
8.36685
8.43159
8.48957
8.54145
8.58787
8.62936
8.66644
8.69963
8.7294
8.75622
8.78053
8.80263
8.82273
8.84098
8.85752
8.87245
8.88591
8.898
8.90884
8.91851
8.92711
8.93471
8.94141
8.94731
8.95252
8.95712
8.96118
8.96479
8.96798
8.97083
8.97336
8.97563
8.97767
8.97951
8.98119
8.98272
8.98409
8.98533
8.98641
8.98734
8.9881
8.98869
8.98908
8.98928
6.22554
6.23992
6.26936
6.3152
6.37914
6.4629
6.56732
6.69122
6.83062
6.9795
7.1322
7.28416
7.43179
7.5728
7.70577
7.82965
7.94382
8.04794
8.14178
8.22572
8.30068
8.36768
8.42756
8.48107
8.52888
8.57154
8.60962
8.64364
8.67413
8.70161
8.72654
8.74928
8.77
8.78883
8.8059
8.82131
8.83519
8.84766
8.85883
8.8688
8.87765
8.88545
8.89231
8.89834
8.90365
8.90833
8.91248
8.91615
8.91941
8.92231
8.92489
8.9272
8.92928
8.93118
8.9329
8.93448
8.93591
8.9372
8.93834
8.93932
8.94013
8.94075
8.94117
8.94138
6.0348
6.04934
6.07928
6.12625
6.19255
6.28062
6.39208
6.52604
6.67776
6.83954
7.00469
7.16819
7.32608
7.4761
7.61702
7.74779
7.8679
7.97705
8.07486
8.16182
8.23915
8.30813
8.36966
8.42458
8.4736
8.51727
8.55618
8.5909
8.62196
8.64995
8.67542
8.69873
8.72001
8.73937
8.75692
8.77276
8.78702
8.79983
8.8113
8.82153
8.8306
8.83858
8.84556
8.85169
8.85708
8.86183
8.86604
8.86977
8.87307
8.87601
8.87862
8.88097
8.88308
8.88502
8.88679
8.88842
8.8899
8.89124
8.89244
8.89347
8.89433
8.89499
8.89543
8.89565
5.84953
5.86407
5.89415
5.94176
6.00982
6.1017
6.22005
6.36459
6.52961
6.70505
6.88309
7.05842
7.22656
7.38543
7.53418
7.67164
7.79749
7.91152
8.01304
8.10263
8.18198
8.25267
8.31563
8.37175
8.42182
8.46634
8.50592
8.5412
8.5727
8.60108
8.62699
8.65082
8.67261
8.69245
8.71045
8.72668
8.74127
8.75439
8.76613
8.77659
8.78586
8.79399
8.80106
8.80725
8.8127
8.8175
8.82175
8.82552
8.82886
8.83182
8.83447
8.83683
8.83897
8.84094
8.84275
8.84443
8.84596
8.84735
8.8486
8.84969
8.8506
8.8513
8.85177
8.852
5.66975
5.6841
5.71394
5.76165
5.83078
5.92582
6.05083
6.20649
6.38607
6.57597
6.76731
6.95477
7.13308
7.30058
7.45701
7.60092
7.73231
7.85113
7.95609
8.04791
8.1289
8.20106
8.26522
8.32235
8.37333
8.41855
8.45867
8.49439
8.52619
8.55481
8.58107
8.60539
8.62767
8.64795
8.66636
8.68293
8.69781
8.71121
8.72318
8.73385
8.74331
8.75156
8.75869
8.76492
8.7704
8.77523
8.77951
8.78331
8.78668
8.78966
8.79232
8.7947
8.79685
8.79884
8.8007
8.80241
8.80399
8.80544
8.80674
8.80788
8.80885
8.80959
8.81008
8.81032
5.49546
5.50943
5.53867
5.58587
5.6553
5.75268
5.88394
6.05137
6.2471
6.45232
6.65724
6.85716
7.04548
7.22128
7.3853
7.53539
7.67207
7.79568
7.90383
7.99739
8.07961
8.15304
8.21819
8.27614
8.32794
8.37372
8.41422
8.45029
8.48226
8.51098
8.5375
8.56231
8.58504
8.60572
8.62453
8.64139
8.65653
8.67018
8.68235
8.69321
8.70285
8.71119
8.71835
8.72458
8.73009
8.73494
8.73923
8.74305
8.74643
8.74942
8.75209
8.75447
8.75662
8.75863
8.76053
8.76229
8.76391
8.76541
8.76676
8.76796
8.76898
8.76977
8.77028
8.77053
5.32668
5.34011
5.36835
5.41442
5.48327
5.582
5.71889
5.89876
6.11278
6.33412
6.55275
6.7656
6.96362
7.14724
7.31884
7.47476
7.61645
7.74502
7.85607
7.9508
8.03383
8.10839
8.17433
8.2329
8.28545
8.33166
8.37241
8.40876
8.44076
8.46941
8.49612
8.52145
8.54461
8.56564
8.58484
8.60196
8.61729
8.63118
8.64353
8.65455
8.66437
8.6728
8.67994
8.68614
8.69166
8.69651
8.7008
8.70464
8.70802
8.71101
8.71368
8.71606
8.7182
8.72022
8.72216
8.72396
8.72562
8.72717
8.72858
8.72983
8.73093
8.73175
8.73229
8.73255
5.16343
5.17614
5.20303
5.24733
5.31463
5.41351
5.55512
5.7481
5.98333
6.22147
6.45363
6.68009
6.88734
7.07812
7.25746
7.41877
7.5651
7.69901
7.81268
7.90789
7.99123
8.06691
8.13342
8.1924
8.24572
8.29222
8.33306
8.36967
8.40155
8.42995
8.45677
8.4827
8.50626
8.5276
8.54719
8.56452
8.58
8.59413
8.60662
8.61776
8.6278
8.63628
8.64336
8.6495
8.65503
8.65986
8.66414
8.668
8.67137
8.67434
8.67703
8.67938
8.6815
8.68353
8.68551
8.68735
8.68905
8.69065
8.6921
8.69342
8.69459
8.69547
8.69603
8.69629
5.00572
5.01756
5.04273
5.08464
5.14939
5.247
5.39202
5.5987
5.85917
6.11452
6.35958
6.60077
6.81648
7.01347
7.20106
7.36713
7.51757
7.65758
7.77352
7.86837
7.95149
8.02841
8.09526
8.15441
8.20861
8.25523
8.29598
8.3329
8.36452
8.39244
8.41926
8.44596
8.4699
8.49145
8.5115
8.52897
8.54453
8.55893
8.57151
8.58275
8.59304
8.60155
8.60851
8.61457
8.6201
8.62491
8.62915
8.63304
8.63639
8.63934
8.64203
8.64436
8.64644
8.64846
8.65051
8.65238
8.65411
8.65577
8.65727
8.65864
8.6599
8.66083
8.6614
8.66167
4.85354
4.86437
4.88751
4.92643
4.98757
5.08228
5.22893
5.44962
5.74105
6.01344
6.27009
6.52787
6.7509
6.95275
7.14963
7.31956
7.47334
7.62076
7.73854
7.83194
7.91421
7.99278
8.05968
8.11866
8.17402
8.22055
8.26099
8.29836
8.32955
8.35672
8.38342
8.41116
8.43541
8.45708
8.47768
8.49522
8.51076
8.52549
8.53811
8.54939
8.56003
8.56855
8.57532
8.58124
8.58682
8.59157
8.59576
8.59969
8.60301
8.60593
8.60863
8.61092
8.61294
8.61495
8.61708
8.61898
8.62073
8.62246
8.62399
8.62542
8.62679
8.62777
8.62835
8.62861
4.70688
4.71658
4.73742
4.77279
4.82928
4.91929
5.06514
5.29958
5.6301
5.91845
6.18441
6.46183
6.69043
6.89522
7.10331
7.27579
7.43174
7.5887
7.70767
7.79831
7.87896
7.95996
8.02651
8.08488
8.14188
8.18806
8.22787
8.26601
8.29656
8.32262
8.34906
8.37828
8.40273
8.42434
8.44569
8.46317
8.47857
8.49376
8.50633
8.51759
8.52871
8.53719
8.54369
8.54943
8.55509
8.55976
8.56388
8.56788
8.57116
8.57401
8.57676
8.57899
8.58092
8.58292
8.58515
8.58707
8.58883
8.59064
8.5922
8.59367
8.59519
8.59622
8.5968
8.59705
4.5657
4.57418
4.59249
4.62383
4.67468
4.75802
4.89996
5.14683
5.5281
5.82979
6.10136
6.40342
6.63491
6.83989
7.06246
7.23554
7.39186
7.56172
7.6809
7.76712
7.84524
7.92998
7.99559
8.05271
8.11221
8.15761
8.19637
8.23582
8.26546
8.28999
8.31596
8.34731
8.37176
8.39308
8.41548
8.43274
8.44783
8.46369
8.47609
8.4872
8.49903
8.50741
8.51354
8.51903
8.52486
8.52942
8.53341
8.53756
8.54076
8.54352
8.54635
8.5485
8.55032
8.55228
8.55468
8.55659
8.55834
8.56026
8.56182
8.56332
8.56504
8.56611
8.56668
8.56692
4.42994
4.43714
4.45275
4.47967
4.52398
4.59864
4.73272
4.98887
5.43759
5.74767
6.01927
6.3538
6.58418
6.78543
7.02779
7.19855
7.35254
7.54042
7.65823
7.73802
7.81242
7.90302
7.96678
8.02176
8.0851
8.12909
8.1662
8.20784
8.23619
8.25868
8.28383
8.31832
8.34244
8.36311
8.38707
8.40385
8.41838
8.43526
8.4473
8.4581
8.47097
8.47916
8.48477
8.48995
8.49609
8.50048
8.50429
8.50866
8.51174
8.51437
8.51734
8.51939
8.52106
8.52296
8.52559
8.52748
8.52918
8.53126
8.5328
8.53431
8.53628
8.53738
8.53792
8.53814
4.29954
4.30542
4.31821
4.3404
4.37741
4.44142
4.56294
4.82226
5.36225
5.67226
5.93567
6.31478
6.53803
6.73004
7.00043
7.16453
7.3122
7.52572
7.63963
7.71064
7.77973
7.87942
7.93996
7.9915
8.06076
8.10239
8.137
8.18216
8.20868
8.22853
8.25238
8.29144
8.3147
8.33419
8.36049
8.37642
8.39004
8.40847
8.41988
8.43011
8.44452
8.45236
8.45732
8.46207
8.46873
8.47286
8.47641
8.48115
8.48404
8.48649
8.4897
8.49161
8.49307
8.49487
8.49785
8.49967
8.50129
8.50359
8.50506
8.50654
8.50887
8.50997
8.51046
8.51065
4.17441
4.17896
4.18886
4.20614
4.23526
4.28682
4.39039
4.64218
5.30722
5.60359
5.84719
6.289
6.49621
6.67128
6.98214
7.13323
7.26877
7.51904
7.62503
7.68461
7.74622
7.85976
7.91499
7.96127
8.03953
8.07739
8.10831
8.159
8.18288
8.19942
8.22118
8.26693
8.28846
8.30605
8.33586
8.35037
8.3626
8.38339
8.39377
8.40306
8.41974
8.42696
8.43109
8.43529
8.44278
8.44651
8.44967
8.45499
8.45761
8.45979
8.46337
8.46508
8.4663
8.46795
8.47143
8.47311
8.47458
8.4772
8.47855
8.47993
8.48275
8.48382
8.48424
8.48439
4.05445
4.05766
4.06467
4.07695
4.09781
4.13548
4.21538
4.44204
5.27952
5.5415
5.74918
6.28021
6.45839
6.60591
6.97545
7.10435
7.2195
7.52242
7.61421
7.65959
7.71068
7.84491
7.89172
7.9302
8.02197
8.05397
8.07954
8.13868
8.15871
8.17124
8.18975
8.24513
8.26364
8.27833
8.31335
8.32563
8.33579
8.36013
8.36888
8.3767
8.39669
8.40289
8.40602
8.40947
8.41822
8.42135
8.42398
8.43017
8.43237
8.43417
8.43833
8.43977
8.44069
8.44209
8.4463
8.44774
8.44897
8.45206
8.45321
8.45441
8.45792
8.45887
8.45919
8.4593
3.93954
3.94144
3.94559
3.95288
3.96533
3.98814
4.03895
4.2129
5.28862
5.48549
5.63547
6.29362
6.42413
6.52969
6.98393
7.07759
7.16077
7.5387
7.60674
7.63531
7.67156
7.83612
7.87
7.89721
8.00888
8.03198
8.04997
8.12168
8.13608
8.14393
8.15741
8.22658
8.24016
8.25057
8.29325
8.30211
8.3093
8.33885
8.34515
8.35076
8.37552
8.38008
8.38204
8.38447
8.3951
8.39735
8.3992
8.40669
8.40827
8.40953
8.41457
8.4156
8.41618
8.4172
8.42245
8.4235
8.42438
8.42816
8.42899
8.42987
8.43433
8.43506
8.43527
8.43534
3.82954
3.83017
3.83154
3.83394
3.83806
3.84567
3.86327
3.9428
5.347
5.43458
5.49801
6.33628
6.39279
6.43709
7.01244
7.0526
7.08796
7.57181
7.60184
7.61168
7.62691
7.83511
7.84961
7.8609
8.00139
8.01124
8.01866
8.10866
8.11482
8.11752
8.12336
8.212
8.2179
8.22222
8.27594
8.27972
8.2827
8.31984
8.32251
8.32488
8.35642
8.35842
8.35909
8.3601
8.37347
8.37443
8.37519
8.38459
8.38526
8.38578
8.39209
8.39253
8.39273
8.39317
8.39989
8.40035
8.40072
8.40548
8.40584
8.40622
8.41201
8.41234
8.41241
8.41243
)
;

boundaryField
{
    left
    {
        type            zeroGradient;
    }
    right
    {
        type            zeroGradient;
    }
    interface
    {
        type            fixedValue;
        value           nonuniform List<scalar> 
64
(
3.77576
3.77576
3.77576
3.77576
3.77576
3.77576
3.77576
3.77576
5.41034
5.41034
5.41034
6.37779
6.37779
6.37779
7.04052
7.04052
7.04052
7.59998
7.59998
7.59998
7.59998
7.83974
7.83974
7.83974
8.00118
8.00118
8.00118
8.10452
8.10452
8.10452
8.10452
8.20706
8.20706
8.20706
8.26881
8.26881
8.26881
8.31146
8.31146
8.31146
8.34787
8.34787
8.34787
8.34787
8.36323
8.36323
8.36323
8.37402
8.37402
8.37402
8.38126
8.38126
8.38126
8.38126
8.38904
8.38904
8.38904
8.39452
8.39452
8.39452
8.40124
8.40124
8.40124
8.40124
)
;
    }
    bottom
    {
        type            fixedValue;
        value           uniform 10;
    }
    defaultFaces
    {
        type            empty;
    }
}


// ************************************************************************* //
