/*--------------------------------*- C++ -*----------------------------------*\
| =========                 |                                                 |
| \\      /  F ield         | OpenFOAM: The Open Source CFD Toolbox           |
|  \\    /   O peration     | Version:  5.x                                   |
|   \\  /    A nd           | Web:      www.OpenFOAM.org                      |
|    \\/     M anipulation  |                                                 |
\*---------------------------------------------------------------------------*/
FoamFile
{
    version     2.0;
    format      ascii;
    class       volScalarField;
    location    "1.9";
    object      gradTx;
}
// * * * * * * * * * * * * * * * * * * * * * * * * * * * * * * * * * * * * * //

dimensions      [0 -1 0 1 0 0 0];

internalField   nonuniform List<scalar> 
2048
(
0.0171533
0.0512279
0.0845966
0.116736
0.147064
0.174956
0.199776
0.220934
0.237948
0.250501
0.258476
0.261966
0.261254
0.256776
0.249075
0.238755
0.226429
0.212691
0.198087
0.183095
0.168116
0.153472
0.139409
0.126098
0.113653
0.102136
0.0915671
0.081937
0.0732122
0.0653428
0.0582683
0.0519223
0.0462369
0.0411461
0.0365877
0.0325054
0.0288487
0.0255734
0.0226407
0.020017
0.0176729
0.0155825
0.0137226
0.0120724
0.0106126
0.00932508
0.00819296
0.00720014
0.00633141
0.00557229
0.00490904
0.0043286
0.00381856
0.00336711
0.00296319
0.00259648
0.00225765
0.00193849
0.00163207
0.00133292
0.00103696
0.000741541
0.000445401
0.000148541
0.0509016
0.152032
0.251112
0.346607
0.436784
0.519768
0.593633
0.656581
0.707141
0.744349
0.767852
0.777936
0.775468
0.76178
0.738519
0.707499
0.670569
0.629506
0.585936
0.541281
0.496733
0.45324
0.411519
0.372076
0.335234
0.301167
0.26993
0.241488
0.215736
0.192521
0.171661
0.152956
0.136203
0.121204
0.107775
0.0957475
0.0849736
0.0753224
0.0666801
0.0589478
0.052039
0.045878
0.0403969
0.0355341
0.0312331
0.0274407
0.024107
0.0211844
0.018628
0.0163951
0.014445
0.0127392
0.011241
0.00991548
0.00872977
0.00765331
0.00665834
0.00572046
0.00481913
0.00393807
0.00306531
0.0021929
0.00131694
0.000438926
0.0836808
0.24999
0.413072
0.57046
0.719297
0.856426
0.978554
1.08258
1.16595
1.22701
1.26515
1.28088
1.27573
1.25199
1.21247
1.16026
1.09846
1.03003
0.957687
0.883765
0.81022
0.738595
0.670042
0.605362
0.545056
0.489382
0.438407
0.392052
0.35013
0.312378
0.278485
0.248114
0.220925
0.196589
0.174802
0.155289
0.137807
0.122144
0.108115
0.0955622
0.0843451
0.0743419
0.0654436
0.0575511
0.0505727
0.0444223
0.0390185
0.0342841
0.0301457
0.0265337
0.023382
0.0206275
0.0182104
0.0160736
0.0141631
0.0124286
0.0108244
0.00931028
0.00785226
0.00642369
0.00500519
0.00358393
0.00215197
0.000716283
0.11575
0.345908
0.571911
0.79046
0.99759
1.18878
1.35921
1.50428
1.6202
1.70448
1.75625
1.77635
1.76704
1.73174
1.67456
1.59993
1.51229
1.41583
1.31434
1.21107
1.10873
1.0094
0.914634
0.82547
0.742544
0.666159
0.59636
0.533002
0.475797
0.424357
0.378231
0.336937
0.299993
0.266938
0.237347
0.210841
0.18709
0.165803
0.146733
0.129665
0.114411
0.100808
0.0887096
0.0779822
0.068502
0.0601522
0.0528216
0.0464047
0.040801
0.0359154
0.0316575
0.0279412
0.0246844
0.0218085
0.0192392
0.0169068
0.0147476
0.0127056
0.0107336
0.00879447
0.00686222
0.00492066
0.00295546
0.000982423
0.14726
0.440273
0.728549
1.00809
1.27384
1.51978
1.73932
1.92606
2.07467
2.1817
2.24601
2.26883
2.2534
2.20444
2.12756
2.02869
1.91369
1.78802
1.65659
1.52357
1.39235
1.26556
1.14505
1.03207
0.927318
0.831093
0.743382
0.663943
0.592364
0.528117
0.470594
0.419159
0.373176
0.332048
0.295231
0.262247
0.23268
0.206172
0.182415
0.161146
0.142134
0.12518
0.110104
0.0967423
0.0849426
0.0745587
0.0654515
0.0574882
0.0505428
0.0444958
0.0392338
0.0346491
0.0306382
0.0271021
0.0239462
0.0210817
0.018427
0.0159099
0.0134696
0.0110584
0.00864409
0.00620937
0.0037322
0.00123939
0.178257
0.533269
0.883424
1.22422
1.54952
1.85163
2.12184
2.35151
2.5334
2.66285
2.73845
2.762
2.73798
2.67274
2.57358
2.44814
2.3038
2.14737
1.98489
1.82144
1.6611
1.50695
1.36112
1.22495
1.09915
0.983952
0.879248
0.784664
0.699644
0.623495
0.555441
0.49467
0.440387
0.39185
0.348399
0.309457
0.274534
0.243208
0.21512
0.189963
0.167472
0.147415
0.129585
0.113792
0.0998571
0.0876074
0.0768769
0.0675068
0.0593465
0.0522535
0.0460931
0.0407369
0.0360615
0.031948
0.0282819
0.0249551
0.0218678
0.0189314
0.0160707
0.0132268
0.0103613
0.00745809
0.00448743
0.0014892
0.208688
0.624784
1.03652
1.43913
1.82545
2.1859
2.50916
2.78372
2.9999
3.15155
3.23699
3.25887
3.2233
3.1386
3.01412
2.85936
2.68336
2.49433
2.29945
2.10474
1.91492
1.73348
1.56271
1.40398
1.25792
1.12465
1.00388
0.895107
0.797594
0.710471
0.63277
0.56349
0.501658
0.446384
0.396889
0.352508
0.312682
0.276937
0.244868
0.216133
0.190434
0.167517
0.147152
0.129128
0.113241
0.0992934
0.0870934
0.0764566
0.0672089
0.059186
0.0522335
0.046204
0.0409552
0.0363491
0.0322516
0.0285349
0.0250804
0.0217824
0.0185503
0.0153132
0.0120263
0.0086764
0.00522707
0.00173398
0.238402
0.714427
1.18736
1.65256
2.1019
2.52362
2.90317
3.22537
3.47731
3.65101
3.74458
3.76193
3.71129
3.60345
3.45016
3.263
3.05275
2.82906
2.60029
2.37338
2.1537
1.94503
1.74975
1.56914
1.40365
1.2532
1.11733
0.995334
0.886291
0.789138
0.702694
0.625744
0.557119
0.495775
0.440819
0.391506
0.347219
0.307439
0.271728
0.239711
0.211068
0.185524
0.162836
0.142774
0.125114
0.109635
0.0961177
0.0843529
0.0741435
0.0653054
0.0576658
0.0510602
0.0453291
0.0403159
0.0358666
0.0318336
0.0280788
0.0244782
0.0209247
0.0173335
0.0136531
0.00987501
0.00595764
0.001976
0.267157
0.801535
1.33508
1.86371
2.37853
2.8653
3.30541
3.67886
3.96856
4.16417
4.26381
4.27319
4.20337
4.06821
3.88224
3.65932
3.41205
3.15151
2.88727
2.6272
2.37727
2.14151
1.92222
1.72048
1.53644
1.36977
1.21976
1.08551
0.96591
0.859682
0.765412
0.681638
0.606977
0.540222
0.480369
0.42661
0.378282
0.334836
0.295805
0.260788
0.229449
0.2015
0.176689
0.154776
0.135518
0.118669
0.103983
0.0912256
0.0801771
0.0706349
0.06241
0.0553233
0.0491993
0.0438636
0.0391425
0.0348674
0.0308799
0.0270365
0.0232119
0.0193051
0.0152572
0.0110655
0.00668611
0.00221765
0.294625
0.885191
1.47836
2.07126
2.65448
3.21098
3.7171
4.1465
4.47649
4.69384
4.79697
4.79425
4.70049
4.53334
4.31051
4.04831
3.76113
3.46149
3.16013
2.86593
2.58544
2.32282
2.08015
1.85811
1.65648
1.47456
1.3114
1.16588
1.0367
0.922359
0.821192
0.731449
0.651501
0.579971
0.515762
0.458014
0.406043
0.359278
0.31723
0.27948
0.245676
0.215527
0.188781
0.165194
0.144507
0.126445
0.110736
0.0971164
0.0853465
0.0752062
0.0664935
0.0590165
0.0525865
0.0470115
0.0420975
0.0376541
0.0335019
0.0294763
0.0254315
0.0212472
0.0168555
0.0122603
0.00741975
0.00246141
0.3204
0.964244
1.61552
2.27336
2.9283
3.56025
4.13925
4.63056
5.00399
5.2427
5.34609
5.32634
5.20316
4.99886
4.73475
4.42965
4.0997
3.75868
3.41854
3.08925
2.77801
2.48893
2.22364
1.98227
1.76406
1.56791
1.39259
1.23676
1.09896
0.977478
0.870358
0.775505
0.691007
0.615315
0.547254
0.485943
0.430695
0.380934
0.336154
0.295918
0.259863
0.2277
0.199193
0.1741
0.152145
0.133024
0.11643
0.102075
0.0896956
0.0790574
0.0699481
0.062167
0.0555142
0.049781
0.0447516
0.0402131
0.0359638
0.0318173
0.027604
0.0231798
0.0184657
0.0134724
0.00816598
0.00270983
0.344018
1.03734
1.74451
2.46765
3.19797
3.91224
4.57268
5.13342
5.55409
5.81346
5.91297
5.87027
5.71141
5.46438
5.15444
4.80286
4.42733
4.0427
3.6621
3.29683
2.95478
2.63982
2.35287
2.09325
1.85955
1.6502
1.46369
1.29851
1.15303
1.02538
0.913273
0.814179
0.725849
0.646571
0.575121
0.510631
0.452444
0.399986
0.352739
0.310247
0.272133
0.238123
0.208011
0.18157
0.158504
0.138471
0.12113
0.106158
0.093274
0.0822306
0.0728091
0.064804
0.0580076
0.0521948
0.0471259
0.0425636
0.0382845
0.0340789
0.0297501
0.0251242
0.0201068
0.0147149
0.00893226
0.00296554
0.364965
1.10298
1.86295
2.65127
3.46088
4.26557
5.01808
5.65772
6.13013
6.40881
6.49918
6.42648
6.22485
5.92914
5.56879
5.1673
4.74359
4.31317
3.89038
3.48825
3.11554
2.77555
2.46807
2.19144
1.94342
1.72191
1.52516
1.35152
1.19928
1.06644
0.950333
0.847876
0.756408
0.674076
0.599652
0.532323
0.471498
0.41662
0.367152
0.322616
0.282618
0.246902
0.215323
0.187683
0.163659
0.142859
0.1249
0.109427
0.0961345
0.0847707
0.0751135
0.0669575
0.0600924
0.0542764
0.0492414
0.0447245
0.0404819
0.0362798
0.0318908
0.0271027
0.0217988
0.0160016
0.00972576
0.00323107
0.38271
1.15956
1.96823
2.82089
3.71375
4.61828
5.47601
6.20648
6.73588
7.03152
7.10599
6.99496
6.74259
6.392
5.97679
5.52221
5.04804
4.56979
4.10296
3.6631
3.26012
2.89624
2.5696
2.27733
2.0162
1.78354
1.57746
1.39621
1.23807
1.10102
0.981957
0.877035
0.783086
0.698179
0.621138
0.551257
0.488066
0.431023
0.379563
0.333182
0.291451
0.254145
0.221218
0.192521
0.167688
0.146263
0.127813
0.111944
0.0983323
0.0867239
0.0768986
0.0686572
0.0617937
0.0560491
0.0511193
0.0467138
0.042572
0.0384372
0.0340464
0.0291385
0.0235632
0.0173459
0.0105529
0.00350866
0.396727
1.20546
2.05756
2.97273
3.95259
4.96774
5.9469
6.78335
7.3757
7.6843
7.73437
7.57526
7.26321
6.85147
6.37728
5.8668
5.34036
4.81235
4.29937
3.82087
3.38836
3.00212
2.65789
2.35149
2.0785
1.83566
1.62112
1.43303
1.26976
1.12949
1.00858
0.902121
0.806297
0.719228
0.639863
0.567663
0.502346
0.443377
0.390139
0.342105
0.298772
0.259955
0.225775
0.19616
0.170671
0.148759
0.129939
0.113775
0.0999231
0.0881371
0.0782019
0.0699314
0.0631357
0.0575364
0.0527806
0.0485477
0.0445691
0.0405659
0.0362363
0.0312563
0.025423
0.018761
0.0114185
0.00379978
0.406523
1.2391
2.12811
3.10267
4.17269
5.31051
6.43104
7.39281
8.05476
8.3698
8.38487
8.16648
7.78478
7.30575
6.76895
6.20022
5.6204
5.04087
4.47915
3.96096
3.50014
3.09351
2.73346
2.41457
2.13101
1.87888
1.65667
1.46242
1.29468
1.15217
1.03067
0.923632
0.826459
0.737568
0.656107
0.581751
0.514526
0.453858
0.399043
0.349545
0.304721
0.264429
0.229067
0.198676
0.172689
0.150424
0.131354
0.114987
0.100963
0.089057
0.07906
0.0708059
0.0641401
0.0587618
0.0542465
0.0502409
0.0464844
0.0426783
0.0384784
0.0334827
0.0274039
0.0202593
0.0123245
0.00410447
0.411677
1.25907
2.17711
3.20633
4.36856
5.6421
6.92841
8.04055
8.77926
9.09031
9.05753
8.7673
8.30471
7.75279
7.15054
6.52158
5.88825
5.25565
4.64176
4.08262
3.59541
3.17091
2.7969
2.46732
2.1745
1.9138
1.68468
1.48484
1.3131
1.16936
1.04871
0.942106
0.843982
0.753531
0.670132
0.593708
0.52478
0.462636
0.406429
0.355667
0.309446
0.267656
0.231152
0.200142
0.173823
0.151334
0.132129
0.115647
0.101505
0.0895297
0.0795088
0.0713035
0.0648261
0.0597496
0.0555386
0.0518052
0.0483263
0.0447829
0.040788
0.0358468
0.0295345
0.0218511
0.0132686
0.00442036
0.411866
1.26421
2.20201
3.2792
4.53389
5.95674
7.43855
8.73391
9.55675
9.84741
9.7518
9.37605
8.8197
8.19036
7.52084
6.82987
6.14435
5.45745
4.78653
4.18484
3.67419
3.23503
2.84886
2.51056
2.2098
1.941
1.70572
1.50078
1.32521
1.18128
1.06321
0.95813
0.859254
0.767431
0.682193
0.603684
0.533267
0.469878
0.412433
0.36064
0.313104
0.269711
0.232072
0.200626
0.17416
0.151564
0.132339
0.115822
0.1016
0.0896008
0.0795838
0.0714418
0.0652088
0.0605255
0.0566801
0.0532497
0.0500997
0.0468843
0.0431769
0.0383819
0.0318481
0.0235439
0.0142418
0.00474172
0.406891
1.25367
2.20064
3.31682
4.66162
6.24704
7.96016
9.48247
10.3966
10.6414
10.4665
9.99097
9.32549
8.61619
7.87896
7.12381
6.38963
5.64764
4.91255
4.26621
3.73667
3.28683
2.88995
2.54518
2.23783
1.961
1.7204
1.51074
1.33112
1.18803
1.07477
0.972363
0.872613
0.779559
0.692536
0.611784
0.540135
0.475748
0.41717
0.364643
0.315867
0.270646
0.231843
0.200198
0.173791
0.151182
0.132058
0.11558
0.101295
0.0893152
0.079321
0.0712329
0.0652982
0.0611181
0.057697
0.0545787
0.0518067
0.0489827
0.0456507
0.0411266
0.0343845
0.0253401
0.0152264
0.00505842
0.396696
1.22703
2.17137
3.31504
4.744
6.50358
8.49059
10.299
11.3105
11.4701
11.1997
10.6105
9.81653
9.02814
8.22449
7.40154
6.62558
5.82847
5.01847
4.3248
3.78333
3.32768
2.9207
2.57216
2.25964
1.97418
1.72937
1.51535
1.33076
1.1896
1.08406
0.985565
0.884311
0.790187
0.701415
0.618047
0.545522
0.480419
0.420716
0.367865
0.317935
0.270492
0.230451
0.198932
0.172818
0.150247
0.131357
0.114992
0.100628
0.0887185
0.0787585
0.0706809
0.0650969
0.0615614
0.0586194
0.0557908
0.0534471
0.0510736
0.0482057
0.0441271
0.0371928
0.0272348
0.0161939
0.00535534
0.381385
1.18433
2.11325
3.27022
4.77283
6.71457
9.02491
11.2003
12.3133
12.3277
11.9493
11.2341
10.2854
9.4245
8.55795
7.66013
6.85451
6.00344
5.10226
4.35789
3.81503
3.35944
2.94134
2.59256
2.27645
1.98069
1.73333
1.51534
1.32388
1.18574
1.09191
0.998637
0.894446
0.799565
0.709112
0.622416
0.549572
0.484088
0.423086
0.37052
0.31955
0.269235
0.227842
0.196913
0.171358
0.148804
0.130311
0.114133
0.0996223
0.0878574
0.07794
0.0697793
0.0645978
0.0618978
0.0594844
0.0568746
0.05502
0.0531487
0.0508236
0.0474409
0.0403356
0.0292117
0.0171032
0.00561242
0.361214
1.12607
2.02616
3.17961
4.73971
6.86544
9.55458
12.2093
13.4242
13.2023
12.7127
11.8628
10.7216
9.80442
8.88126
7.89476
7.07982
6.17778
5.16077
4.36175
3.83335
3.38469
2.95154
2.6076
2.28977
1.98026
1.7331
1.51171
1.30996
1.17596
1.09936
1.01267
0.902877
0.807945
0.715975
0.624699
0.552445
0.486992
0.4242
0.372852
0.321015
0.266809
0.223909
0.194246
0.169555
0.146869
0.128996
0.113086
0.0982855
0.0867826
0.0769179
0.0685084
0.0637805
0.0621818
0.0603387
0.0578045
0.0565264
0.0551977
0.0534642
0.0511408
0.0438942
0.0312386
0.0178995
0.00580548
0.336587
1.05327
1.91086
3.04158
4.63653
6.93852
10.0655
13.3562
14.6684
14.0726
13.4884
12.5009
11.1107
10.1686
9.19855
8.09755
7.3064
6.35913
5.18924
4.33129
3.84085
3.40693
2.95008
2.61873
2.30149
1.97201
1.72965
1.50578
1.28811
1.15938
1.10779
1.02904
0.909086
0.815605
0.722471
0.624495
0.55435
0.489448
0.423833
0.375156
0.322727
0.263068
0.218483
0.191073
0.167583
0.144415
0.127495
0.111948
0.0965943
0.0855512
0.0757597
0.0668304
0.0626061
0.0624862
0.0612431
0.0585329
0.0579735
0.0572111
0.0560536
0.0553206
0.0479764
0.0332598
0.0185144
0.00590806
0.30803
0.967362
1.76903
2.85593
4.45615
6.91306
10.5352
14.6819
16.0788
14.9035
14.2769
13.1578
11.4309
10.5202
9.5172
8.25573
7.54121
6.55838
5.18046
4.25975
3.84155
3.4309
2.93422
2.62779
2.31416
1.95408
1.72426
1.49942
1.25695
1.13463
1.11902
1.04949
0.911985
0.822911
0.729262
0.621098
0.555583
0.491893
0.421535
0.377805
0.32521
0.257757
0.211316
0.187593
0.165665
0.141353
0.125906
0.110842
0.0944821
0.0842324
0.0745555
0.0646844
0.0610112
0.062909
0.0622777
0.0589783
0.0593816
0.0591862
0.0584693
0.0601037
0.0527257
0.0351869
0.0188664
0.00589395
0.276169
0.870164
1.60325
2.62414
4.19309
6.76556
10.929
16.2403
17.6997
15.6402
15.0831
13.8504
11.651
10.8663
9.84934
8.34926
7.79421
6.79076
5.12379
4.13826
3.84147
3.46297
2.89899
2.63725
2.33122
1.9232
1.7186
1.49524
1.21448
1.0997
1.13548
1.07625
0.909658
0.8304
0.737308
0.613356
0.556584
0.49495
0.416534
0.381288
0.329165
0.250463
0.202068
0.184082
0.164088
0.137491
0.12435
0.109925
0.0918194
0.0829137
0.0734272
0.0619792
0.0588993
0.0635827
0.0635494
0.0590105
0.0607923
0.0611354
0.0605177
0.0656532
0.0583343
0.0368853
0.0188638
0.00574024
0.24169
0.763771
1.41689
2.34952
3.84453
6.47073
11.1946
18.1031
19.5899
16.1995
15.9194
14.6062
11.7248
11.2198
10.2138
8.3474
8.07959
7.07721
5.00377
3.95555
3.84934
3.5116
2.83613
2.65062
2.35743
1.87402
1.71504
1.49681
1.15784
1.05177
1.16043
1.11224
0.89901
0.838918
0.748002
0.599471
0.558025
0.499508
0.407588
0.386261
0.335527
0.240565
0.19029
0.180923
0.163222
0.132503
0.122989
0.109407
0.0883866
0.0817117
0.0725403
0.0585852
0.0561314
0.0646847
0.0652014
0.0584278
0.0622816
0.063099
0.0619062
0.0721864
0.0650572
0.0381561
0.0184082
0.0054302
0.205308
0.650447
1.21399
2.0372
3.41122
6.00336
11.2555
20.3639
21.8288
16.4595
16.8106
15.4677
11.5853
11.6022
10.6384
8.20438
8.41753
7.44591
4.79841
3.6976
3.87739
3.58802
2.73273
2.67297
2.39934
1.79835
1.71689
1.50901
1.08309
0.986968
1.19818
1.16126
0.875307
0.849807
0.763338
0.576738
0.560928
0.50683
0.392801
0.393626
0.345528
0.227154
0.175416
0.178644
0.16355
0.125861
0.122052
0.109572
0.083838
0.0807856
0.0721173
0.0543246
0.0525132
0.0664508
0.0674262
0.0569286
0.0639755
0.0651626
0.0622044
0.0799932
0.0732302
0.0387124
0.0174007
0.00495567
0.167731
0.532508
0.998971
1.694
2.89839
5.34139
11.002
23.1439
24.5223
16.2457
17.7999
16.4969
11.1367
12.0473
11.1634
7.85365
8.83657
7.93405
4.47702
3.34743
3.94218
3.70688
2.56957
2.71167
2.46592
1.68399
1.72892
1.53832
0.984975
0.90017
1.25436
1.2283
0.831598
0.865167
0.786111
0.541202
0.566812
0.518688
0.369383
0.404636
0.360782
0.208947
0.156753
0.177951
0.165694
0.116774
0.12186
0.110805
0.0776568
0.0803565
0.0724524
0.0489597
0.0477816
0.0691893
0.070482
0.0540743
0.0660703
0.0674802
0.0607966
0.0894602
0.0832901
0.0381488
0.0157514
0.00431846
0.129628
0.41221
0.776468
1.32817
2.31643
4.47051
10.2805
26.5982
27.812
15.3145
18.9573
17.7811
10.2443
12.6056
11.8449
7.20095
9.37677
8.58977
3.99765
2.88513
4.06555
3.88727
2.31898
2.77738
2.56926
1.51353
1.75786
1.5932
0.856518
0.784726
1.33621
1.31982
0.758003
0.888199
0.820164
0.487229
0.577902
0.537518
0.33335
0.421022
0.383359
0.184174
0.133484
0.179765
0.170459
0.104094
0.122873
0.113619
0.0690973
0.0807325
0.0739272
0.0421809
0.0415885
0.073297
0.0747136
0.0492428
0.0688574
0.0703046
0.056822
0.1011
0.0957973
0.035902
0.0133931
0.00353068
0.0916092
0.291652
0.551035
0.948822
1.6811
3.39058
8.88012
30.9226
31.8849
13.3329
20.3899
19.4393
8.72167
13.3508
12.7592
6.11578
10.0937
9.47413
3.30404
2.28807
4.27542
4.15378
1.94236
2.88532
2.72541
1.26265
1.81321
1.68436
0.688738
0.632204
1.4529
1.44423
0.640852
0.923643
0.87065
0.406984
0.597381
0.566607
0.279169
0.445176
0.415877
0.150449
0.10468
0.185262
0.178876
0.086215
0.125741
0.118698
0.0571169
0.082341
0.0770255
0.0335934
0.0334836
0.0792746
0.0805792
0.0415728
0.0727518
0.0740247
0.0491025
0.11559
0.11146
0.0312041
0.0103028
0.00261459
0.0542048
0.172695
0.326914
0.565387
1.01315
2.12419
6.51768
36.3612
36.9861
9.85472
22.2551
21.6289
6.31693
14.3862
14.0077
4.42145
11.0637
10.663
2.32214
1.53146
4.60654
4.53788
1.3872
3.05676
2.9553
0.898277
1.90816
1.82515
0.470246
0.432129
1.61578
1.61236
0.461682
0.978313
0.944331
0.289817
0.629694
0.610302
0.199328
0.480357
0.461578
0.104621
0.0693273
0.195899
0.192263
0.060947
0.131365
0.126929
0.0402949
0.0857693
0.0823465
0.0227038
0.0228963
0.0877429
0.0886818
0.0298977
0.0783258
0.079211
0.0360581
0.133812
0.131162
0.0230262
0.00653348
0.00160249
0.0178566
0.0569122
0.107834
0.186892
0.336918
0.727629
2.81979
43.2139
43.4336
4.29384
24.7752
24.553
2.69555
15.8539
15.7223
1.88379
12.3895
12.2489
0.956348
0.589413
5.10095
5.07945
0.583835
3.32085
3.28573
0.376464
2.06077
2.0317
0.186871
0.171736
1.83867
1.83801
0.196091
1.06173
1.04988
0.121561
0.680914
0.674233
0.0838597
0.530958
0.524408
0.0426131
0.0263707
0.213436
0.212286
0.0253799
0.140978
0.139449
0.0167405
0.0918139
0.0906149
0.0089082
0.00911722
0.0994554
0.0998079
0.0126709
0.0863445
0.0866682
0.0156099
0.156911
0.155984
0.0100154
0.00225859
0.000537955
)
;

boundaryField
{
    left
    {
        type            calculated;
        value           uniform 0;
    }
    right
    {
        type            calculated;
        value           uniform 0;
    }
    interface
    {
        type            calculated;
        value           nonuniform List<scalar> 
64
(
0.0178566
0.0569122
0.107834
0.186892
0.336918
0.727629
2.81979
43.2139
43.4336
4.29384
24.7752
24.553
2.69555
15.8539
15.7223
1.88379
12.3895
12.2489
0.956348
0.589413
5.10095
5.07945
0.583835
3.32085
3.28573
0.376464
2.06077
2.0317
0.186871
0.171736
1.83867
1.83801
0.196091
1.06173
1.04988
0.121561
0.680914
0.674233
0.0838597
0.530958
0.524408
0.0426131
0.0263707
0.213436
0.212286
0.0253799
0.140978
0.139449
0.0167405
0.0918139
0.0906149
0.0089082
0.00911722
0.0994554
0.0998079
0.0126709
0.0863445
0.0866682
0.0156099
0.156911
0.155984
0.0100154
0.00225859
0.000537955
)
;
    }
    bottom
    {
        type            calculated;
        value           nonuniform List<scalar> 
64
(
0.0171533
0.0512279
0.0845966
0.116736
0.147064
0.174956
0.199776
0.220934
0.237948
0.250501
0.258476
0.261966
0.261254
0.256776
0.249075
0.238755
0.226429
0.212691
0.198087
0.183095
0.168116
0.153472
0.139409
0.126098
0.113653
0.102136
0.0915671
0.081937
0.0732122
0.0653428
0.0582683
0.0519223
0.0462369
0.0411461
0.0365877
0.0325054
0.0288487
0.0255734
0.0226407
0.020017
0.0176729
0.0155825
0.0137226
0.0120724
0.0106126
0.00932508
0.00819296
0.00720014
0.00633141
0.00557229
0.00490904
0.0043286
0.00381856
0.00336711
0.00296319
0.00259648
0.00225765
0.00193849
0.00163207
0.00133292
0.00103696
0.000741541
0.000445401
0.000148541
)
;
    }
    defaultFaces
    {
        type            empty;
    }
}


// ************************************************************************* //
