/*--------------------------------*- C++ -*----------------------------------*\
| =========                 |                                                 |
| \\      /  F ield         | OpenFOAM: The Open Source CFD Toolbox           |
|  \\    /   O peration     | Version:  5.x                                   |
|   \\  /    A nd           | Web:      www.OpenFOAM.org                      |
|    \\/     M anipulation  |                                                 |
\*---------------------------------------------------------------------------*/
FoamFile
{
    version     2.0;
    format      ascii;
    class       volScalarField;
    location    "2";
    object      gradTx;
}
// * * * * * * * * * * * * * * * * * * * * * * * * * * * * * * * * * * * * * //

dimensions      [0 -1 0 1 0 0 0];

internalField   nonuniform List<scalar> 
2048
(
0.0176031
0.0525748
0.0868322
0.119845
0.151022
0.179727
0.205312
0.227172
0.244811
0.257901
0.266316
0.27014
0.269655
0.265298
0.257619
0.247225
0.234742
0.220777
0.205887
0.190563
0.175221
0.160194
0.145738
0.132034
0.119201
0.107308
0.096379
0.0864068
0.0773592
0.0691868
0.0618285
0.055217
0.0492831
0.0439591
0.0391818
0.0348934
0.0310427
0.0275846
0.0244799
0.0216947
0.0191992
0.0169674
0.0149762
0.0132045
0.0116328
0.0102427
0.0090169
0.00793886
0.00699276
0.00616351
0.00543673
0.00479864
0.00423614
0.00373673
0.00328866
0.00288099
0.00250382
0.00214839
0.00180736
0.00147484
0.00114646
0.000819309
0.000491895
0.000164014
0.0522332
0.15602
0.257733
0.355817
0.448513
0.533912
0.610049
0.675082
0.727502
0.766306
0.791111
0.802186
0.80039
0.787058
0.763851
0.732606
0.695204
0.653457
0.609029
0.563385
0.517753
0.473119
0.43023
0.389617
0.351625
0.316444
0.28414
0.254685
0.227979
0.203869
0.182171
0.162682
0.145195
0.129508
0.115432
0.102797
0.0914502
0.0812592
0.0721087
0.0638988
0.0565427
0.049964
0.0440947
0.038873
0.0342414
0.0301461
0.0265358
0.0233617
0.0205771
0.0181374
0.0160001
0.0141245
0.0124718
0.011005
0.00968932
0.00849226
0.00738435
0.00633965
0.00533629
0.00435687
0.00338847
0.00242243
0.00145422
0.000484637
0.0858608
0.25652
0.423919
0.585557
0.738535
0.879639
1.00551
1.11298
1.19942
1.2631
1.30338
1.32074
1.31668
1.29351
1.25407
1.20146
1.13886
1.06928
0.995502
0.919932
0.844589
0.771074
0.700591
0.633984
0.571787
0.514284
0.461561
0.41355
0.370069
0.330857
0.295598
0.263951
0.235568
0.210112
0.187273
0.166769
0.148353
0.13181
0.116953
0.103621
0.0916733
0.0809885
0.0714568
0.0629786
0.0554612
0.0488172
0.0429632
0.0378195
0.0333101
0.0293622
0.0259065
0.0228765
0.0202088
0.0178431
0.0157219
0.013792
0.0120047
0.0103173
0.00869361
0.0071052
0.00553117
0.00395753
0.00237555
0.000790825
0.118748
0.354892
0.586843
0.81126
1.02412
1.22082
1.39645
1.54631
1.66649
1.75442
1.80917
1.8315
1.82368
1.78914
1.73202
1.6568
1.568
1.4699
1.36637
1.26079
1.15592
1.05395
0.956498
0.86466
0.779117
0.700207
0.628001
0.562368
0.503026
0.449587
0.401596
0.35856
0.319987
0.285404
0.254377
0.226518
0.201491
0.179
0.158796
0.140661
0.124407
0.10987
0.0969037
0.0853745
0.0751571
0.0661327
0.0581874
0.0512124
0.0451033
0.0397606
0.0350893
0.0309988
0.027402
0.0242156
0.0213607
0.0187632
0.0163556
0.0140782
0.0118809
0.00972425
0.00758003
0.00543054
0.00326076
0.00108435
0.151047
0.451628
0.747436
1.03443
1.30747
1.56045
1.78665
1.97953
2.13361
2.24531
2.31341
2.33907
2.3255
2.27746
2.20059
2.10089
1.98434
1.8565
1.7224
1.58636
1.45188
1.32168
1.19772
1.08132
0.973239
0.87381
0.783053
0.700742
0.626475
0.559718
0.499858
0.446242
0.398221
0.355182
0.316568
0.281888
0.250721
0.222701
0.197519
0.174908
0.154638
0.136509
0.120342
0.105973
0.0932474
0.0820176
0.0721406
0.0634793
0.0559026
0.0492854
0.0435086
0.0384583
0.0340249
0.0301033
0.0265929
0.0233993
0.0204357
0.0176258
0.0149048
0.0122221
0.00954289
0.00684784
0.00411466
0.00136722
0.182804
0.546909
0.906135
1.25593
1.59009
1.90078
2.17913
2.41631
2.60488
2.74004
2.82024
2.84721
2.82542
2.7612
2.66197
2.53542
2.38908
2.22991
2.06409
1.89687
1.73249
1.57415
1.4241
1.28377
1.15393
1.03486
0.926493
0.828464
0.740228
0.661087
0.590252
0.526891
0.470188
0.419381
0.373792
0.332833
0.296002
0.262873
0.233083
0.206322
0.182326
0.160864
0.141729
0.124733
0.109693
0.0964359
0.0847899
0.074591
0.0656823
0.0579144
0.0511456
0.04524
0.0400668
0.0354995
0.0314162
0.0277019
0.0242507
0.0209686
0.017776
0.0146104
0.0114305
0.00821775
0.00494265
0.00164152
0.213963
0.640619
1.06292
1.47606
1.8728
2.24338
2.57629
2.85977
3.08389
3.2423
3.33316
3.35904
3.32601
3.24242
3.11772
2.96153
2.78302
2.59061
2.39166
2.19239
1.99773
1.81129
1.63553
1.47189
1.32109
1.18328
1.05825
0.945477
0.844247
0.753678
0.672783
0.600533
0.535926
0.478048
0.426098
0.379397
0.337374
0.299547
0.265512
0.234922
0.207483
0.182939
0.161066
0.141651
0.12449
0.109383
0.096131
0.0845437
0.0744391
0.0656451
0.0579986
0.0513436
0.045529
0.0404076
0.0358366
0.0316799
0.0278116
0.0241197
0.0205086
0.0169033
0.0132558
0.00955019
0.00575088
0.00190944
0.24437
0.732356
1.2173
1.69454
2.15585
2.5893
2.98006
3.31263
3.57382
3.75536
3.85518
3.87708
3.82928
3.7226
3.56889
3.3799
3.16658
2.9388
2.70517
2.47287
2.24748
2.03299
1.83192
1.64565
1.47472
1.3191
1.17838
1.05185
0.938614
0.83759
0.74757
0.6673
0.595576
0.531319
0.473612
0.421693
0.374934
0.332811
0.294881
0.260769
0.230158
0.202777
0.178384
0.156754
0.137661
0.120878
0.106182
0.0933537
0.0821878
0.0724904
0.0640792
0.0567797
0.0504221
0.0448391
0.0398666
0.0353469
0.0311336
0.0270954
0.0231197
0.0191174
0.0150335
0.0108563
0.00654616
0.00217333
0.273777
0.821442
1.36839
1.91054
2.43891
2.93903
3.39198
3.77735
4.07766
4.28223
4.38895
4.40342
4.33669
4.20269
4.01607
3.79086
3.53987
3.27447
3.00449
2.73812
2.48159
2.23914
2.01326
1.80511
1.61494
1.44247
1.28703
1.14775
1.02351
0.913018
0.814823
0.727412
0.649355
0.579402
0.516523
0.45989
0.408832
0.362792
0.321301
0.28396
0.250435
0.220444
0.193741
0.170089
0.149247
0.130961
0.114978
0.101053
0.0889569
0.0784755
0.0694093
0.0615677
0.0547638
0.0488109
0.0435232
0.0387206
0.034235
0.0299148
0.0256287
0.0212711
0.0167797
0.0121482
0.00733576
0.00243567
0.301848
0.906941
1.51484
2.12272
2.72107
3.29262
3.81329
4.25625
4.59829
4.82575
4.9368
4.9397
4.84926
4.6832
4.45942
4.1944
3.90279
3.59742
3.28938
2.9879
2.69987
2.42968
2.17959
1.95039
1.74195
1.55361
1.38447
1.23343
1.09919
0.980226
0.87482
0.781157
0.697545
0.622559
0.555067
0.494195
0.439247
0.38965
0.344913
0.304617
0.268416
0.236027
0.207208
0.181721
0.159306
0.139683
0.122567
0.107686
0.0947857
0.0836343
0.0740179
0.0657327
0.0585767
0.0523441
0.0468266
0.0418207
0.0371358
0.0325984
0.0280562
0.0233845
0.018512
0.0134389
0.00812725
0.00269903
0.328172
0.987679
1.65494
2.32917
3.00085
3.64963
4.24501
4.75162
5.13862
5.38866
5.50082
5.48718
5.36749
5.16418
4.89875
4.59024
4.25506
3.90736
3.55949
3.22188
2.9021
2.60454
2.33101
2.08174
1.85604
1.65286
1.47103
1.30922
1.16596
1.03953
0.927898
0.828879
0.74048
0.661094
0.589513
0.52484
0.466384
0.413564
0.365874
0.322879
0.284222
0.249627
0.218871
0.191723
0.167906
0.147108
0.12901
0.113306
0.0997215
0.0880077
0.0779397
0.0693039
0.0618863
0.0554622
0.049799
0.0446686
0.0398568
0.0351674
0.0304241
0.0254788
0.020249
0.0147416
0.00892835
0.00296606
0.352274
1.06228
1.78658
2.52751
3.27621
4.00915
4.68794
5.26588
5.70175
5.97369
6.08283
6.04671
5.89147
5.64527
5.33358
4.97792
4.59629
4.20391
3.81444
3.43971
3.08808
2.76372
2.46769
2.19944
1.9576
1.74063
1.54708
1.37547
1.22418
1.09129
0.974435
0.870966
0.778528
0.695343
0.620151
0.552075
0.490457
0.434724
0.384355
0.338898
0.297983
0.261351
0.22882
0.200176
0.175123
0.153307
0.134371
0.117974
0.103817
0.0916407
0.0812123
0.072313
0.06472
0.0581902
0.0524637
0.0472857
0.0424188
0.0376429
0.0327546
0.0275763
0.0220103
0.0160704
0.00974673
0.0032394
0.373633
1.12921
1.90737
2.7148
3.54445
4.36978
5.14278
5.80169
6.29104
6.58361
6.68443
6.61873
6.42079
6.12569
5.76311
5.35681
4.92603
4.48671
4.05378
3.64097
3.25759
2.90726
2.5899
2.30391
2.04709
1.81738
1.61309
1.4326
1.27421
1.13588
1.01484
0.907844
0.812091
0.725657
0.647283
0.576153
0.511686
0.453326
0.400533
0.352833
0.309837
0.271313
0.237147
0.207163
0.181035
0.158357
0.138722
0.121754
0.107129
0.0945817
0.0838755
0.0747923
0.0671059
0.0605539
0.0548443
0.0496932
0.0448416
0.0400452
0.0350698
0.0297003
0.0238168
0.017439
0.0105897
0.00352158
0.391708
1.18685
2.01464
2.88766
3.80224
4.7295
5.61007
6.3621
6.91033
7.22118
7.30694
7.20326
6.95457
6.60432
6.18636
5.72617
5.24389
4.75546
4.27708
3.82522
3.41044
3.03528
2.69796
2.39563
2.12508
1.88366
1.66954
1.48103
1.31642
1.17368
1.04955
0.93997
0.841589
0.752402
0.671212
0.597323
0.530286
0.469564
0.414587
0.36485
0.319927
0.279623
0.243943
0.212768
0.185725
0.162335
0.142138
0.124714
0.109717
0.0968803
0.0859695
0.0767736
0.0690712
0.0625793
0.0569645
0.0519114
0.0471436
0.0423932
0.0373914
0.031875
0.0256904
0.0188614
0.0114637
0.00381476
0.405962
1.23353
2.10555
3.04225
4.04552
5.08564
6.09024
6.9508
7.56403
7.8892
7.95132
7.79985
7.49139
7.07966
6.60213
6.08521
5.54956
5.00996
4.48386
3.99191
3.54645
3.14801
2.79233
2.4752
2.19219
1.94003
1.71697
1.52121
1.35119
1.20506
1.07903
0.967833
0.867455
0.775943
0.692237
0.615825
0.546467
0.483632
0.426692
0.375116
0.328398
0.286391
0.249291
0.217071
0.189277
0.165325
0.144697
0.126925
0.111641
0.0985868
0.0875345
0.0782872
0.0706419
0.0642924
0.0588482
0.0539591
0.0493407
0.0447035
0.03974
0.0341261
0.0276551
0.020351
0.0123734
0.00412027
0.415899
1.26767
2.17722
3.17438
4.26949
5.43467
6.58355
7.57232
8.25736
8.59032
8.61816
8.40759
8.02928
7.5499
7.00916
6.4331
5.84291
5.25024
4.67362
4.14041
3.66548
3.24577
2.87354
2.5433
2.24913
1.98712
1.75591
1.5536
1.37883
1.23036
1.10374
0.991956
0.890128
0.79664
0.710647
0.631876
0.560423
0.495712
0.437021
0.383804
0.335401
0.291717
0.253265
0.220152
0.191776
0.167407
0.146478
0.128458
0.11296
0.0997516
0.0886098
0.0793609
0.0718417
0.0657194
0.0605193
0.0558531
0.0514462
0.0469896
0.0421344
0.036481
0.0297368
0.0219201
0.0133205
0.00443793
0.421089
1.28784
2.22684
3.27958
4.46856
5.77203
7.08999
8.23244
8.99661
9.32686
9.3075
9.02515
8.56562
8.01296
7.40616
6.76895
6.12408
5.47666
4.8458
4.2699
3.76745
3.32907
2.94218
2.60067
2.29669
2.02555
1.78695
1.57866
1.39961
1.24987
1.12421
1.01291
0.91004
0.814842
0.72672
0.645668
0.572335
0.505984
0.445733
0.39109
0.341095
0.295693
0.255924
0.222084
0.193309
0.168663
0.147559
0.129387
0.113733
0.100424
0.0892339
0.0800183
0.0726909
0.0668872
0.0620029
0.0576076
0.0534701
0.0492616
0.044591
0.0389698
0.0319649
0.0235791
0.0143022
0.00476514
0.421206
1.29284
2.25182
3.35328
4.63632
6.09184
7.60905
8.93858
9.78943
10.1004
10.0188
9.65086
9.09704
8.46659
7.79191
7.09173
6.39357
5.68999
4.99967
4.3793
3.85237
3.39862
2.99891
2.64818
2.33573
2.05591
1.81069
1.5969
1.41374
1.26381
1.14097
1.03131
0.927595
0.830878
0.740718
0.657356
0.582368
0.514622
0.452974
0.397155
0.345645
0.298395
0.257307
0.222941
0.193968
0.169172
0.148021
0.129783
0.114015
0.100654
0.0894452
0.080278
0.0732056
0.0678247
0.0633255
0.0592336
0.0554193
0.0515254
0.0471219
0.0416265
0.0343734
0.0253351
0.0153088
0.00509587
0.416049
1.28184
2.24996
3.39096
4.7656
6.38656
8.13941
9.70049
10.6453
10.9113
10.7509
10.2829
9.61919
8.90849
8.16553
7.40013
6.65236
5.8917
5.13425
4.4671
3.92042
3.45543
3.04437
2.68675
2.36721
2.07874
1.82775
1.60883
1.42127
1.27228
1.15465
1.04786
0.943148
0.845054
0.752901
0.667041
0.590675
0.521798
0.458863
0.402191
0.349242
0.299876
0.257425
0.222795
0.193852
0.169008
0.147943
0.129722
0.113854
0.100491
0.0892825
0.0801516
0.0733956
0.0685642
0.064517
0.0607373
0.0572973
0.0537825
0.0497329
0.0444904
0.0370031
0.0271903
0.0163221
0.00541972
0.405564
1.2544
2.21962
3.38838
4.84852
6.64665
8.67836
10.5311
11.5761
11.7573
11.5019
10.9198
10.1264
9.33652
8.52662
7.69224
6.90207
6.08415
5.2481
4.53122
3.97205
3.5009
3.07908
2.71739
2.39223
2.09442
1.83881
1.6151
1.42212
1.27522
1.16597
1.06337
0.956956
0.857654
0.763534
0.674755
0.5974
0.527697
0.463474
0.406407
0.352101
0.300161
0.256256
0.221724
0.193071
0.168233
0.147404
0.129281
0.113291
0.0999826
0.0887877
0.0796418
0.0732626
0.069144
0.0656127
0.0621177
0.0591052
0.0560297
0.05242
0.0476089
0.0399043
0.0291391
0.0173124
0.00572127
0.389858
1.21056
2.15985
3.34189
4.87674
6.8601
9.22086
11.4475
12.5969
12.6323
12.2697
11.561
10.6109
9.74898
8.87573
7.96499
7.14515
6.27102
5.33903
4.56876
4.00818
3.53698
3.10322
2.74122
2.41207
2.10307
1.8446
1.61648
1.41601
1.27238
1.17581
1.07881
0.969111
0.868944
0.772918
0.680424
0.602695
0.532526
0.466816
0.410037
0.354491
0.299228
0.253731
0.219819
0.191755
0.166894
0.146485
0.128542
0.112351
0.0991815
0.0880086
0.0787396
0.0727968
0.0696119
0.0666553
0.0633632
0.0608434
0.0582605
0.0551636
0.0510403
0.0431415
0.0311645
0.0182375
0.00598012
0.369195
1.15086
2.07052
3.24868
4.84174
7.01208
9.75825
12.4729
13.7271
13.5243
13.0518
12.2075
11.0622
10.1451
9.21486
8.21334
7.38521
6.45781
5.40369
4.57575
4.03044
3.56636
3.11645
2.75951
2.4283
2.10439
1.84599
1.61401
1.40233
1.26318
1.18531
1.09536
0.979442
0.879189
0.781426
0.683822
0.606731
0.536544
0.468792
0.41335
0.356749
0.296996
0.249724
0.217196
0.190061
0.165003
0.145271
0.127599
0.11104
0.0981435
0.0870041
0.07742
0.0719732
0.0700299
0.0676989
0.0644459
0.0625146
0.0604666
0.0579208
0.0548589
0.0467989
0.0332329
0.0190408
0.00617169
0.343987
1.07633
1.95242
3.10711
4.73529
7.08466
10.2762
13.6382
14.9922
14.4115
13.8468
12.8639
11.4651
10.5256
9.54828
8.429
7.6274
6.65254
5.43699
4.54676
4.04152
3.59271
3.1174
2.77379
2.44294
2.09741
1.844
1.60911
1.38011
1.24666
1.19596
1.11449
0.987366
0.888693
0.789561
0.684497
0.609734
0.540093
0.469139
0.416679
0.359318
0.293292
0.244036
0.214013
0.188184
0.162529
0.143854
0.12656
0.109326
0.0969325
0.0858502
0.075638
0.0707455
0.0704806
0.0688138
0.0653123
0.0641279
0.0626419
0.0606134
0.0591604
0.0509881
0.035287
0.0196518
0.00626892
0.314774
0.988443
1.80729
2.91701
4.55014
7.05673
10.7518
14.9848
16.4258
15.2581
14.6554
13.5399
11.7973
10.8939
9.88363
8.59858
7.87913
6.86667
5.43128
4.47458
4.04564
3.62102
3.10313
2.78601
2.45868
2.08012
1.84
1.60377
1.34784
1.22133
1.20971
1.13809
0.991676
0.897855
0.798046
0.681654
0.612031
0.543653
0.467345
0.42044
0.362788
0.28782
0.236381
0.210491
0.186374
0.159361
0.142345
0.125564
0.107132
0.0956262
0.0846492
0.0733215
0.0690392
0.0710758
0.0700923
0.065871
0.0657063
0.0647887
0.0631111
0.0640708
0.0558584
0.0372353
0.0199861
0.00624484
0.282193
0.889049
1.63775
2.6799
4.28075
6.90441
11.1498
16.5677
18.0726
16.008
15.483
14.2526
12.0263
11.2575
10.2334
8.70103
8.15092
7.11622
5.37527
4.34982
4.04917
3.65801
3.06831
2.79881
2.47919
2.04898
1.83579
1.60078
1.30331
1.18498
1.22923
1.16858
0.990258
0.907269
0.80793
0.674007
0.614111
0.547909
0.462531
0.425185
0.367946
0.280106
0.226366
0.206942
0.184955
0.155279
0.140881
0.124789
0.104305
0.0943244
0.0835406
0.0703637
0.0667419
0.0719662
0.0716577
0.0659743
0.0672963
0.066927
0.0652089
0.0697573
0.0616097
0.0389386
0.0199485
0.00607554
0.246945
0.78029
1.44726
2.39916
3.92426
6.60199
11.4171
18.4599
19.9926
16.5764
16.3427
15.0306
12.1044
11.63
10.6172
8.70409
8.45776
7.42321
5.25258
4.1605
4.06134
3.71261
3.00408
2.81594
2.50952
1.99824
1.83391
1.60398
1.24344
1.13452
1.25807
1.20914
0.979704
0.91787
0.820741
0.65955
0.616724
0.553845
0.453295
0.431657
0.375846
0.26944
0.213478
0.203801
0.184346
0.149904
0.139649
0.124477
0.100589
0.09316
0.0827144
0.0666135
0.0636919
0.0733545
0.0736748
0.0653939
0.0689815
0.0691087
0.066596
0.0764432
0.0685074
0.0401913
0.0194368
0.00574323
0.209759
0.664475
1.23991
2.08004
3.48147
6.12386
11.4757
20.7565
22.2663
16.8386
17.2602
15.9174
11.9625
12.0339
11.0639
8.55973
8.82096
7.81729
5.03995
3.89171
4.09509
3.79667
2.8967
2.84281
2.55667
1.91907
1.83793
1.61861
1.16395
1.06574
1.30091
1.26391
0.954811
0.931145
0.838671
0.635273
0.62101
0.562864
0.437495
0.440878
0.387882
0.254786
0.197067
0.201666
0.185093
0.142629
0.138909
0.124952
0.0955824
0.0923161
0.0824265
0.061864
0.0596647
0.0755099
0.0763648
0.0637875
0.0709003
0.0714359
0.0668156
0.0844278
0.0769018
0.0406963
0.018348
0.00523872
0.171359
0.543966
1.02025
1.72949
2.95772
5.4476
11.2142
23.5811
25.0015
16.6165
18.2804
16.9766
11.5013
12.5045
11.6151
8.19817
9.27062
8.33761
4.70496
3.52543
4.16798
3.92573
2.72564
2.88732
2.63019
1.7984
1.85297
1.65164
1.05913
0.973022
1.3639
1.33829
0.907945
0.949421
0.864798
0.596776
0.628669
0.576932
0.411984
0.454264
0.405875
0.234684
0.176339
0.201342
0.187904
0.132543
0.139032
0.126656
0.0886867
0.0920471
0.0830162
0.055839
0.0543564
0.0787848
0.080024
0.0606574
0.0732682
0.0740867
0.0652138
0.0941109
0.0872481
0.0400331
0.0165885
0.00456325
0.132426
0.421064
0.792969
1.3559
2.36361
4.55868
10.4762
27.0915
28.342
15.6612
19.4754
18.298
10.5813
13.0945
12.3291
7.52056
9.84897
9.03482
4.20328
3.04051
4.30313
4.11999
2.46141
2.96089
2.74302
1.6175
1.8863
1.71217
0.921467
0.849111
1.45495
1.43937
0.828258
0.976237
0.903355
0.537798
0.64219
0.598766
0.372276
0.473778
0.432169
0.207122
0.150361
0.203878
0.193696
0.118329
0.140549
0.130179
0.0790388
0.0927085
0.0849236
0.0481791
0.047366
0.0836327
0.0850476
0.0552984
0.0764057
0.0773472
0.0608758
0.106025
0.100131
0.0376172
0.014089
0.00372913
0.0935837
0.297908
0.562727
0.96859
1.71522
3.457
9.04719
31.4872
32.4784
13.6326
20.9558
20.0037
9.01002
13.8804
13.2853
6.39013
10.6146
9.97322
3.47553
2.41284
4.53016
4.40554
2.06285
3.07976
2.9123
1.35025
1.94815
1.81176
0.74127
0.68478
1.58405
1.5763
0.700747
1.01683
0.960025
0.449635
0.665125
0.63203
0.312135
0.502124
0.469722
0.169391
0.118066
0.210613
0.203645
0.0981403
0.144206
0.136308
0.0654328
0.0947938
0.0887072
0.0384261
0.0381756
0.0906265
0.0919596
0.0467339
0.0807705
0.0816516
0.0525488
0.120876
0.116289
0.032651
0.0108269
0.0027599
0.0553717
0.176396
0.333844
0.57715
1.03366
2.16559
6.63902
37.0167
37.6604
10.0749
22.8831
22.2558
6.52672
14.9699
14.5893
4.62172
11.6476
11.2327
2.44363
1.61606
4.8859
4.81577
1.47404
3.2667
3.16042
0.961172
2.0527
1.96476
0.506272
0.468556
1.7636
1.76092
0.505149
1.07872
1.04227
0.320457
0.702437
0.681581
0.223105
0.542989
0.522206
0.117919
0.078292
0.223211
0.219255
0.0694658
0.151043
0.146065
0.0462259
0.0989816
0.0950595
0.0260073
0.0261298
0.100477
0.101449
0.0336424
0.0869951
0.0876303
0.0385522
0.139585
0.136643
0.0240658
0.00685948
0.0016903
0.0182409
0.0581314
0.110119
0.190777
0.34373
0.741764
2.87173
43.9856
44.2118
4.38916
25.4858
25.2632
2.7855
16.5107
16.3783
1.96996
13.0562
12.9106
1.00678
0.622482
5.41495
5.39305
0.62072
3.55284
3.51604
0.403073
2.21939
2.18857
0.201235
0.186447
2.00868
2.00832
0.21469
1.1724
1.15968
0.134529
0.760901
0.753716
0.0939674
0.601336
0.594083
0.0480831
0.0298253
0.243678
0.24243
0.0289662
0.162477
0.160761
0.0192328
0.106192
0.104818
0.0102213
0.0104151
0.114046
0.114414
0.0142728
0.0959287
0.0961655
0.0166737
0.163351
0.162323
0.0104555
0.00236954
0.000567171
)
;

boundaryField
{
    left
    {
        type            calculated;
        value           uniform 0;
    }
    right
    {
        type            calculated;
        value           uniform 0;
    }
    interface
    {
        type            calculated;
        value           nonuniform List<scalar> 
64
(
0.0182409
0.0581314
0.110119
0.190777
0.34373
0.741764
2.87173
43.9856
44.2118
4.38916
25.4858
25.2632
2.7855
16.5107
16.3783
1.96996
13.0562
12.9106
1.00678
0.622482
5.41495
5.39305
0.62072
3.55284
3.51604
0.403073
2.21939
2.18857
0.201235
0.186447
2.00868
2.00832
0.21469
1.1724
1.15968
0.134529
0.760901
0.753716
0.0939674
0.601336
0.594083
0.0480831
0.0298253
0.243678
0.24243
0.0289662
0.162477
0.160761
0.0192328
0.106192
0.104818
0.0102213
0.0104151
0.114046
0.114414
0.0142728
0.0959287
0.0961655
0.0166737
0.163351
0.162323
0.0104555
0.00236954
0.000567171
)
;
    }
    bottom
    {
        type            calculated;
        value           nonuniform List<scalar> 
64
(
0.0176031
0.0525748
0.0868322
0.119845
0.151022
0.179727
0.205312
0.227172
0.244811
0.257901
0.266316
0.27014
0.269655
0.265298
0.257619
0.247225
0.234742
0.220777
0.205887
0.190563
0.175221
0.160194
0.145738
0.132034
0.119201
0.107308
0.096379
0.0864068
0.0773592
0.0691868
0.0618285
0.055217
0.0492831
0.0439591
0.0391818
0.0348934
0.0310427
0.0275846
0.0244799
0.0216947
0.0191992
0.0169674
0.0149762
0.0132045
0.0116328
0.0102427
0.0090169
0.00793886
0.00699276
0.00616351
0.00543673
0.00479864
0.00423614
0.00373673
0.00328866
0.00288099
0.00250382
0.00214839
0.00180736
0.00147484
0.00114646
0.000819309
0.000491895
0.000164014
)
;
    }
    defaultFaces
    {
        type            empty;
    }
}


// ************************************************************************* //
