/*--------------------------------*- C++ -*----------------------------------*\
| =========                 |                                                 |
| \\      /  F ield         | OpenFOAM: The Open Source CFD Toolbox           |
|  \\    /   O peration     | Version:  5.x                                   |
|   \\  /    A nd           | Web:      www.OpenFOAM.org                      |
|    \\/     M anipulation  |                                                 |
\*---------------------------------------------------------------------------*/
FoamFile
{
    version     2.0;
    format      ascii;
    class       volScalarField;
    location    "2";
    object      gradTy;
}
// * * * * * * * * * * * * * * * * * * * * * * * * * * * * * * * * * * * * * //

dimensions      [0 -1 0 1 0 0 0];

internalField   nonuniform List<scalar> 
2048
(
-22.1988
-22.122
-21.9695
-21.7432
-21.4465
-21.084
-20.6618
-20.1875
-19.6698
-19.1184
-18.5437
-17.9558
-17.3646
-16.7793
-16.2076
-15.6562
-15.1303
-14.6337
-14.1691
-13.7377
-13.3401
-12.9758
-12.6438
-12.3426
-12.0703
-11.8249
-11.6044
-11.4066
-11.2294
-11.0709
-10.9292
-10.8026
-10.6896
-10.5888
-10.4989
-10.4188
-10.3475
-10.2841
-10.2278
-10.1779
-10.1337
-10.0947
-10.0602
-10.0297
-10.0029
-9.97928
-9.95849
-9.94019
-9.92408
-9.90988
-9.89736
-9.88631
-9.87656
-9.86795
-9.86035
-9.85368
-9.84785
-9.84281
-9.83851
-9.83495
-9.8321
-9.82997
-9.82854
-9.82783
-22.2606
-22.183
-22.0288
-21.7998
-21.4993
-21.1319
-20.7036
-20.2222
-19.6966
-19.1369
-18.5538
-17.9579
-17.3594
-16.7676
-16.1905
-15.6348
-15.1058
-14.6071
-14.1413
-13.7096
-13.3123
-12.9488
-12.618
-12.3182
-12.0475
-11.8039
-11.585
-11.3888
-11.2132
-11.0562
-10.9159
-10.7905
-10.6787
-10.5788
-10.4898
-10.4105
-10.34
-10.2772
-10.2215
-10.1721
-10.1284
-10.0898
-10.0557
-10.0256
-9.99911
-9.97579
-9.95527
-9.93722
-9.92132
-9.90731
-9.89496
-9.88405
-9.87441
-9.8659
-9.85838
-9.85177
-9.84598
-9.84097
-9.8367
-9.83314
-9.8303
-9.82816
-9.82673
-9.82602
-22.3781
-22.2991
-22.1417
-21.9078
-21.6002
-21.2234
-20.7835
-20.2883
-19.7475
-19.1718
-18.5726
-17.9613
-17.3488
-16.7447
-16.1574
-15.5937
-15.0587
-14.5562
-14.0882
-13.656
-13.2593
-12.8975
-12.569
-12.272
-12.0044
-11.764
-11.5484
-11.3554
-11.1828
-11.0285
-10.8908
-10.7678
-10.658
-10.5601
-10.4728
-10.395
-10.3258
-10.2642
-10.2096
-10.1612
-10.1184
-10.0806
-10.0472
-10.0178
-9.99196
-9.96921
-9.9492
-9.9316
-9.91611
-9.90246
-9.89042
-9.87978
-9.87037
-9.86204
-9.85467
-9.84817
-9.84247
-9.83751
-9.83327
-9.82973
-9.82689
-9.82475
-9.82331
-9.8226
-22.545
-22.4639
-22.3024
-22.0617
-21.7442
-21.3542
-20.8976
-20.3828
-19.82
-19.2211
-18.5986
-17.9651
-17.3323
-16.7107
-16.1089
-15.5339
-14.9907
-14.4828
-14.0121
-13.5793
-13.1838
-12.8245
-12.4995
-12.2067
-11.9436
-11.7078
-11.4969
-11.3083
-11.14
-10.9897
-10.8556
-10.7359
-10.6291
-10.5338
-10.4489
-10.3732
-10.3058
-10.246
-10.1929
-10.1459
-10.1043
-10.0677
-10.0354
-10.0069
-9.98194
-9.95998
-9.94069
-9.92374
-9.90882
-9.89567
-9.88406
-9.8738
-9.8647
-9.85663
-9.84947
-9.84313
-9.83753
-9.83265
-9.82845
-9.82493
-9.82209
-9.81994
-9.8185
-9.81778
-22.7555
-22.6722
-22.5058
-22.2571
-21.9276
-21.5211
-21.0434
-20.5032
-19.9119
-19.2827
-18.63
-17.9678
-17.3091
-16.6652
-16.0451
-15.456
-14.9028
-14.3886
-13.9148
-13.4817
-13.0881
-12.7323
-12.412
-12.1246
-11.8674
-11.6376
-11.4326
-11.2498
-11.0868
-10.9416
-10.812
-10.6965
-10.5933
-10.5013
-10.4193
-10.3462
-10.2812
-10.2234
-10.1722
-10.1269
-10.0869
-10.0516
-10.0206
-9.99339
-9.9695
-9.94853
-9.93013
-9.91397
-9.89976
-9.88724
-9.87618
-9.86638
-9.85768
-9.84993
-9.84302
-9.83687
-9.83141
-9.82661
-9.82245
-9.81894
-9.8161
-9.81394
-9.81248
-9.81175
-23.0048
-22.9193
-22.7479
-22.4903
-22.1473
-21.7215
-21.2185
-20.6475
-20.0213
-19.355
-18.6652
-17.968
-17.278
-16.6074
-15.9658
-15.3603
-14.7957
-14.2745
-13.7977
-13.3648
-12.974
-12.623
-12.3087
-12.028
-11.778
-11.5554
-11.3575
-11.1815
-11.025
-10.8857
-10.7615
-10.6507
-10.5519
-10.4637
-10.385
-10.3149
-10.2525
-10.1971
-10.1481
-10.1048
-10.0666
-10.033
-10.0035
-9.97766
-9.95503
-9.93522
-9.91786
-9.90264
-9.88925
-9.87746
-9.86703
-9.85778
-9.84953
-9.84215
-9.83553
-9.82959
-9.82428
-9.81957
-9.81546
-9.81195
-9.80909
-9.80691
-9.80542
-9.80468
-23.2883
-23.2008
-23.0247
-22.7584
-22.401
-21.9538
-21.4217
-20.8145
-20.1467
-19.4363
-18.7025
-17.9642
-17.2377
-16.5365
-15.8705
-15.2469
-14.6698
-14.1415
-13.6621
-13.2302
-12.8434
-12.4984
-12.1914
-11.9189
-11.6772
-11.4631
-11.2734
-11.1053
-10.9561
-10.8235
-10.7053
-10.6
-10.5059
-10.4218
-10.3469
-10.28
-10.2206
-10.1679
-10.1213
-10.0801
-10.0439
-10.0122
-9.9844
-9.96012
-9.93892
-9.9204
-9.90421
-9.89002
-9.87756
-9.86658
-9.85686
-9.84821
-9.84047
-9.8335
-9.8272
-9.8215
-9.81634
-9.81172
-9.80763
-9.80412
-9.80123
-9.799
-9.79748
-9.79672
-23.6016
-23.5127
-23.3328
-23.0585
-22.6867
-22.2166
-21.6521
-21.0033
-20.2871
-19.525
-18.7401
-17.9544
-17.1867
-16.4512
-15.7586
-15.1154
-14.5255
-13.9902
-13.5089
-13.0793
-12.6978
-12.3602
-12.062
-11.799
-11.567
-11.3624
-11.1819
-11.0226
-10.8815
-10.7563
-10.6448
-10.5453
-10.4563
-10.3768
-10.3058
-10.2425
-10.1862
-10.1363
-10.0923
-10.0535
-10.0194
-9.98967
-9.96372
-9.94114
-9.92149
-9.90438
-9.88945
-9.87639
-9.86493
-9.85483
-9.84588
-9.83789
-9.8307
-9.82417
-9.81821
-9.81275
-9.80775
-9.80321
-9.79914
-9.7956
-9.79265
-9.79036
-9.78878
-9.788
-23.9404
-23.8511
-23.669
-23.3885
-23.0033
-22.5095
-21.9094
-21.2134
-20.4414
-19.6196
-18.7762
-17.937
-17.1233
-16.3506
-15.6293
-14.9658
-14.3629
-13.8212
-13.3391
-12.9132
-12.5387
-12.2102
-11.9223
-11.67
-11.4489
-11.2549
-11.0846
-10.9348
-10.8025
-10.6854
-10.581
-10.4877
-10.4042
-10.3293
-10.2624
-10.2028
-10.1498
-10.1029
-10.0615
-10.0252
-9.99344
-9.96579
-9.9418
-9.92103
-9.90303
-9.88742
-9.87383
-9.86198
-9.85158
-9.84242
-9.83428
-9.82699
-9.82038
-9.81432
-9.80872
-9.80351
-9.79866
-9.79418
-9.79011
-9.78651
-9.78348
-9.7811
-9.77946
-9.77864
-24.3004
-24.212
-24.0303
-23.7463
-23.3497
-22.8325
-22.1939
-21.4448
-20.6088
-19.7187
-18.8088
-17.9098
-17.0458
-16.2333
-15.4822
-14.7979
-14.1824
-13.6352
-13.1536
-12.7331
-12.3675
-12.0498
-11.7738
-11.5336
-11.3244
-11.142
-10.9827
-10.8432
-10.7204
-10.6118
-10.515
-10.4282
-10.3502
-10.2802
-10.2175
-10.1616
-10.112
-10.0681
-10.0295
-9.99574
-9.96632
-9.94087
-9.91894
-9.90007
-9.88381
-9.86977
-9.8576
-9.84699
-9.83771
-9.82952
-9.82223
-9.81567
-9.80967
-9.80411
-9.79887
-9.79391
-9.78921
-9.78478
-9.78067
-9.77698
-9.77383
-9.77134
-9.76961
-9.76875
-24.6774
-24.5917
-24.4134
-24.1299
-23.7253
-23.1859
-22.5066
-21.698
-20.7888
-19.8205
-18.8357
-17.8708
-16.9526
-16.0981
-15.3165
-14.6116
-13.9842
-13.4326
-12.9533
-12.5403
-12.1855
-11.8807
-11.618
-11.3913
-11.195
-11.025
-10.8774
-10.7488
-10.6362
-10.5366
-10.4476
-10.3674
-10.2951
-10.2299
-10.1715
-10.1194
-10.0732
-10.0324
-9.9966
-9.9654
-9.93839
-9.91519
-9.89539
-9.8785
-9.86406
-9.85166
-9.84094
-9.83163
-9.82348
-9.8163
-9.80989
-9.80409
-9.79872
-9.79366
-9.78879
-9.78408
-9.77951
-9.7751
-9.77093
-9.76711
-9.76381
-9.76116
-9.75933
-9.75841
-25.0667
-24.986
-24.8153
-24.5375
-24.1299
-23.571
-22.8491
-21.9739
-20.9808
-19.9233
-18.8547
-17.8175
-16.8418
-15.9441
-15.1318
-14.4071
-13.7688
-13.2142
-12.739
-12.3358
-11.9943
-11.7042
-11.4566
-11.2444
-11.062
-10.9051
-10.7699
-10.6528
-10.5508
-10.4606
-10.3797
-10.3063
-10.2395
-10.1791
-10.1248
-10.0765
-10.0337
-9.99603
-9.96308
-9.93448
-9.90989
-9.889
-9.8714
-9.85656
-9.84399
-9.83327
-9.82403
-9.81603
-9.80905
-9.80289
-9.79738
-9.79236
-9.78764
-9.78309
-9.7786
-9.77413
-9.76968
-9.76527
-9.761
-9.75701
-9.75349
-9.75066
-9.7487
-9.74771
-25.464
-25.3908
-25.2328
-24.9673
-24.5635
-23.9894
-23.2239
-22.2739
-21.1841
-20.025
-18.8629
-17.7475
-16.7115
-15.7702
-14.9279
-14.1845
-13.5367
-12.9806
-12.5115
-12.1208
-11.7953
-11.522
-11.2909
-11.0943
-10.9265
-10.7833
-10.661
-10.556
-10.465
-10.3847
-10.3121
-10.2453
-10.1839
-10.1282
-10.078
-10.0333
-9.99394
-9.95937
-9.92924
-9.90323
-9.88106
-9.86249
-9.84714
-9.83443
-9.82378
-9.81476
-9.80704
-9.80036
-9.79454
-9.78941
-9.78482
-9.78059
-9.77655
-9.77252
-9.7684
-9.76416
-9.7598
-9.75537
-9.75097
-9.74675
-9.74297
-9.7399
-9.73778
-9.73671
-25.8647
-25.802
-25.6623
-25.4173
-25.0262
-24.4434
-23.6342
-22.6002
-21.3981
-20.1229
-18.8576
-17.6581
-16.56
-15.5758
-14.7048
-13.9444
-13.2886
-12.7322
-12.2716
-11.8965
-11.5899
-11.3355
-11.1223
-10.9423
-10.7897
-10.6606
-10.5516
-10.459
-10.3796
-10.3096
-10.2453
-10.185
-10.1289
-10.0775
-10.0312
-9.99019
-9.95417
-9.92265
-9.89532
-9.87186
-9.85206
-9.83584
-9.82281
-9.81228
-9.80359
-9.7963
-9.79008
-9.78472
-9.78006
-9.77597
-9.7723
-9.76888
-9.76552
-9.76202
-9.75826
-9.75424
-9.74997
-9.7455
-9.74092
-9.73641
-9.7323
-9.72894
-9.72664
-9.72547
-26.2641
-26.2151
-26.1003
-25.8853
-25.5182
-24.9359
-24.0843
-22.9554
-21.6215
-20.214
-18.8354
-17.5463
-16.3856
-15.3605
-14.4627
-13.6875
-13.0255
-12.4698
-12.0198
-11.664
-11.3796
-11.1461
-10.9522
-10.7896
-10.6524
-10.5378
-10.4424
-10.3625
-10.2952
-10.2359
-10.1802
-10.126
-10.0746
-10.0274
-9.98478
-9.9473
-9.91462
-9.88611
-9.86153
-9.84056
-9.82305
-9.80915
-9.79852
-9.79026
-9.78356
-9.778
-9.77328
-9.76921
-9.7657
-9.76264
-9.75988
-9.75729
-9.75464
-9.75168
-9.74827
-9.74446
-9.74026
-9.73571
-9.73091
-9.72606
-9.72154
-9.71783
-9.71532
-9.71405
-26.6576
-26.6257
-26.5428
-26.3688
-26.0393
-25.4702
-24.5801
-23.3434
-21.8524
-20.2944
-18.7931
-17.409
-16.1867
-15.1244
-14.2021
-13.4149
-12.7485
-12.1935
-11.7566
-11.4246
-11.1662
-10.9554
-10.7818
-10.6373
-10.5155
-10.4155
-10.334
-10.267
-10.2122
-10.1644
-10.1172
-10.0685
-10.0215
-9.97804
-9.93884
-9.90482
-9.87548
-9.8499
-9.82803
-9.80948
-9.79412
-9.78254
-9.7744
-9.76849
-9.76379
-9.75996
-9.75673
-9.75391
-9.75152
-9.74949
-9.74764
-9.74589
-9.74398
-9.74155
-9.73847
-9.73485
-9.73072
-9.72607
-9.72103
-9.71575
-9.71072
-9.70658
-9.70385
-9.70248
-27.041
-27.0294
-26.9858
-26.8647
-26.5894
-26.0504
-25.1287
-23.769
-22.0878
-20.3589
-18.7273
-17.2427
-15.9618
-14.8682
-13.9235
-13.1278
-12.4593
-11.9037
-11.4819
-11.1795
-10.9516
-10.7647
-10.6124
-10.4864
-10.3796
-10.2943
-10.227
-10.1728
-10.131
-10.0955
-10.0569
-10.0129
-9.96954
-9.92966
-9.8935
-9.86288
-9.83694
-9.81417
-9.79496
-9.77876
-9.76533
-9.75603
-9.75054
-9.74711
-9.74439
-9.74227
-9.7405
-9.73887
-9.73758
-9.73655
-9.7356
-9.73471
-9.73358
-9.7317
-9.72891
-9.72546
-9.72139
-9.71663
-9.71131
-9.70553
-9.69985
-9.69521
-9.69225
-9.69079
-27.4099
-27.4219
-27.4247
-27.3695
-27.1675
-26.6807
-25.7396
-24.2393
-22.3223
-20.4016
-18.6354
-17.0435
-15.7097
-14.5936
-13.6275
-12.8281
-12.1603
-11.6
-11.1956
-10.9301
-10.738
-10.5752
-10.4448
-10.3381
-10.2451
-10.1745
-10.1218
-10.0799
-10.0519
-10.0299
-10.0001
-9.95926
-9.91894
-9.88237
-9.84877
-9.82157
-9.79916
-9.779
-9.76246
-9.74854
-9.73669
-9.72964
-9.72703
-9.72621
-9.72543
-9.72499
-9.72466
-9.72413
-9.7239
-9.72387
-9.72377
-9.72378
-9.72348
-9.72215
-9.71959
-9.71631
-9.71232
-9.70742
-9.7018
-9.69545
-9.68895
-9.68372
-9.68055
-9.67903
-27.7606
-27.799
-27.855
-27.8788
-27.7718
-27.3652
-26.4243
-24.764
-22.5475
-20.4146
-18.5159
-16.8063
-15.4293
-14.3036
-13.3142
-12.5174
-11.8546
-11.2812
-10.8964
-10.6781
-10.5282
-10.3879
-10.2801
-10.1935
-10.1122
-10.0564
-10.0189
-9.98835
-9.97498
-9.96832
-9.94753
-9.90765
-9.8696
-9.83633
-9.80457
-9.78092
-9.76236
-9.74445
-9.73063
-9.71898
-9.70817
-9.70332
-9.70394
-9.70595
-9.70695
-9.70817
-9.70926
-9.70969
-9.71051
-9.71147
-9.71216
-9.71309
-9.71373
-9.71297
-9.71053
-9.70741
-9.70352
-9.69845
-9.69256
-9.68556
-9.678
-9.67209
-9.66874
-9.66722
-28.0897
-28.1567
-28.272
-28.3875
-28.3992
-28.1079
-27.1975
-25.3572
-22.7493
-20.3885
-18.3703
-16.5248
-15.1195
-14.0036
-12.9828
-12.198
-11.5472
-10.945
-10.5828
-10.4255
-10.3257
-10.2032
-10.1188
-10.0541
-9.98068
-9.94028
-9.91921
-9.89772
-9.90004
-9.91149
-9.90011
-9.85774
-9.82139
-9.7918
-9.7607
-9.74096
-9.72678
-9.71047
-9.69956
-9.69031
-9.67964
-9.67699
-9.68135
-9.68646
-9.68897
-9.69182
-9.69438
-9.69555
-9.6974
-9.6994
-9.70074
-9.70265
-9.70436
-9.70419
-9.7017
-9.69876
-9.69503
-9.68974
-9.68364
-9.67593
-9.66696
-9.6603
-9.65685
-9.65543
-28.3944
-28.4915
-28.6708
-28.8898
-29.0451
-28.9116
-28.0768
-26.0397
-22.9056
-20.3121
-18.2047
-16.1892
-14.7796
-13.702
-12.6301
-11.8721
-11.2456
-10.5873
-10.2517
-10.175
-10.1351
-10.0206
-9.96142
-9.92179
-9.84973
-9.82607
-9.82364
-9.80724
-9.82676
-9.86033
-9.85917
-9.80889
-9.77402
-9.74919
-9.71681
-9.70166
-9.69282
-9.67692
-9.66934
-9.66285
-9.6509
-9.6505
-9.65939
-9.66796
-9.67147
-9.67599
-9.6801
-9.68168
-9.68459
-9.68769
-9.68949
-9.69245
-9.69543
-9.6959
-9.69307
-9.69035
-9.68689
-9.68128
-9.67509
-9.66665
-9.65578
-9.64829
-9.64489
-9.6437
-28.6725
-28.8003
-29.0467
-29.3791
-29.7027
-29.7769
-29.0831
-26.8429
-22.9813
-20.1722
-18.0332
-15.785
-14.4085
-13.4124
-12.2495
-11.5421
-10.961
-10.2007
-9.89938
-9.93016
-9.96283
-9.83815
-9.80801
-9.79948
-9.71767
-9.71371
-9.73391
-9.71559
-9.75456
-9.81597
-9.82653
-9.75987
-9.72713
-9.70925
-9.67225
-9.66298
-9.66109
-9.64346
-9.64007
-9.6371
-9.6216
-9.62366
-9.6382
-9.65073
-9.65438
-9.66067
-9.66656
-9.668
-9.67208
-9.67644
-9.67835
-9.68245
-9.687
-9.68818
-9.68458
-9.68218
-9.67917
-9.67305
-9.66699
-9.65789
-9.64438
-9.63603
-9.63291
-9.63211
-28.9223
-29.0808
-29.3955
-29.8482
-30.3634
-30.7014
-30.24
-27.8144
-22.9223
-19.9541
-17.8822
-15.2889
-14.0057
-13.1557
-11.8284
-11.2104
-10.7109
-9.77321
-9.52048
-9.69549
-9.81753
-9.65175
-9.6584
-9.69148
-9.58146
-9.60305
-9.65272
-9.62059
-9.68252
-9.77975
-9.80482
-9.70858
-9.68025
-9.67324
-9.62598
-9.62487
-9.63252
-9.6095
-9.61184
-9.61385
-9.59119
-9.59623
-9.61799
-9.63517
-9.63751
-9.64588
-9.65397
-9.6544
-9.65989
-9.6658
-9.66722
-9.67265
-9.67917
-9.68122
-9.67612
-9.67424
-9.67199
-9.66496
-9.65942
-9.64988
-9.63259
-9.62348
-9.62096
-9.62075
-29.1428
-29.331
-29.7133
-30.2898
-31.0158
-31.678
-31.5725
-29.0262
-22.6461
-19.6424
-17.7966
-14.6644
-13.5703
-12.9644
-11.3443
-10.8794
-10.5215
-9.28576
-9.10879
-9.4769
-9.71135
-9.45367
-9.51216
-9.6044
-9.43601
-9.49384
-9.58427
-9.51883
-9.60945
-9.75325
-9.79781
-9.65164
-9.63282
-9.64323
-9.5763
-9.58727
-9.60853
-9.57397
-9.58471
-9.59428
-9.55877
-9.56792
-9.59903
-9.62182
-9.62054
-9.63162
-9.64265
-9.64066
-9.64802
-9.65598
-9.65595
-9.66299
-9.67204
-9.67521
-9.6675
-9.66654
-9.66552
-9.6569
-9.65249
-9.64295
-9.6202
-9.61059
-9.60911
-9.60971
-29.3339
-29.5499
-29.9967
-30.6965
-31.6469
-32.6934
-33.1039
-30.5867
-22.0288
-19.2225
-17.8486
-13.8535
-13.1024
-12.8872
-10.7604
-10.5515
-10.4319
-8.70857
-8.6576
-9.28168
-9.6612
-9.23111
-9.36865
-9.54824
-9.27314
-9.38585
-9.53496
-9.40507
-9.53387
-9.73823
-9.81098
-9.58377
-9.58427
-9.6225
-9.52052
-9.5501
-9.59131
-9.53514
-9.55877
-9.58014
-9.52298
-9.53841
-9.58165
-9.61146
-9.6029
-9.61786
-9.63307
-9.62642
-9.63649
-9.64729
-9.64433
-9.65343
-9.66572
-9.67049
-9.65843
-9.65906
-9.66
-9.64864
-9.64626
-9.6376
-9.60683
-9.59729
-9.59746
-9.59907
-29.4958
-29.7369
-30.2433
-31.0614
-32.2414
-33.7263
-34.8507
-32.6578
-20.8882
-18.6829
-18.1484
-12.7672
-12.6032
-12.9958
-10.0184
-10.2291
-10.4994
-7.9963
-8.16101
-9.11829
-9.69067
-8.96393
-9.22727
-9.53793
-9.08019
-9.27897
-9.51438
-9.27142
-9.45423
-9.73644
-9.85221
-9.497
-9.5341
-9.61597
-9.45449
-9.51334
-9.58405
-9.49027
-9.53408
-9.57403
-9.48168
-9.50741
-9.5662
-9.60513
-9.58367
-9.60457
-9.62589
-9.61109
-9.62529
-9.6402
-9.63195
-9.64387
-9.66029
-9.66748
-9.64845
-9.65177
-9.6558
-9.63977
-9.64079
-9.63451
-9.5919
-9.58354
-9.58611
-9.5889
-29.6293
-29.8923
-30.4517
-31.3785
-32.7834
-34.7467
-36.8141
-35.4772
-18.9603
-18.0193
-18.8585
-11.2716
-12.0765
-13.3944
-9.02978
-9.91544
-10.8064
-7.0814
-7.61609
-8.99571
-9.83257
-8.62175
-9.08779
-9.5952
-8.83813
-9.17342
-9.53644
-9.10624
-9.36922
-9.74928
-9.93282
-9.37959
-9.48208
-9.6309
-9.37195
-9.47702
-9.5914
-9.43521
-9.5107
-9.57965
-9.43175
-9.47474
-9.55306
-9.60425
-9.56147
-9.59171
-9.62207
-9.59379
-9.6144
-9.63534
-9.61823
-9.63422
-9.6558
-9.66679
-9.63683
-9.64463
-9.65342
-9.62968
-9.63608
-9.63463
-9.5745
-9.5693
-9.57514
-9.57926
-29.7357
-30.017
-30.6213
-31.6433
-33.2571
-35.7151
-38.9674
-39.3895
-15.8694
-17.2408
-20.2115
-9.16914
-11.5312
-14.2302
-7.66395
-9.61484
-11.4694
-5.86517
-7.0265
-8.92199
-10.1322
-8.16021
-8.95092
-9.75109
-8.51908
-9.07007
-9.62091
-8.89263
-9.27834
-9.77728
-10.0688
-9.2147
-9.42844
-9.67768
-9.26373
-9.44139
-9.61994
-9.36388
-9.48872
-9.60225
-9.36856
-9.44049
-9.54253
-9.6108
-9.53426
-9.57927
-9.62298
-9.57319
-9.60382
-9.63359
-9.60232
-9.6244
-9.65223
-9.66927
-9.62255
-9.63757
-9.65361
-9.61749
-9.63206
-9.63931
-9.55332
-9.55462
-9.56466
-9.57017
-29.8167
-30.1125
-30.7526
-31.853
-33.648
-36.5837
-41.2377
-44.885
-11.0901
-16.3773
-22.5311
-6.17667
-10.9842
-15.708
-5.734
-9.33418
-12.6497
-4.20631
-6.40785
-8.90185
-10.6519
-7.51641
-8.8191
-10.0489
-8.08326
-8.97103
-9.79522
-8.6066
-9.18286
-9.81925
-10.2827
-8.97863
-9.37432
-9.77081
-9.11675
-9.40706
-9.6789
-9.26759
-9.46835
-9.64913
-9.28556
-9.40532
-9.53478
-9.6275
-9.49915
-9.56728
-9.63052
-9.54742
-9.59358
-9.6362
-9.58301
-9.6144
-9.64942
-9.67613
-9.6042
-9.63057
-9.65743
-9.60193
-9.62857
-9.65044
-9.52652
-9.5397
-9.55481
-9.56168
-29.874
-30.1805
-30.8471
-32.0066
-33.9451
-37.2996
-43.4808
-52.6494
-3.90075
-15.4912
-26.2572
-1.89706
-10.4658
-18.1058
-2.97896
-9.08459
-14.5662
-1.90655
-5.79532
-8.93281
-11.4763
-6.60332
-8.69766
-10.5476
-7.4752
-8.88035
-10.0967
-8.21467
-9.08721
-9.87104
-10.6055
-8.63885
-9.32228
-9.93012
-8.91276
-9.37528
-9.78091
-9.13436
-9.45005
-9.73027
-9.17364
-9.37081
-9.52968
-9.65814
-9.45226
-9.55597
-9.64737
-9.51395
-9.58386
-9.64497
-9.55872
-9.60442
-9.64715
-9.68914
-9.5799
-9.62368
-9.66644
-9.58139
-9.62539
-9.67069
-9.49156
-9.52508
-9.54578
-9.5539
-29.91
-30.2232
-30.907
-32.1054
-34.1419
-37.811
-45.4484
-63.6244
6.67311
-14.6917
-31.9733
4.21367
-10.0261
-21.7945
0.956883
-8.8839
-17.5112
1.30697
-5.25406
-8.99959
-12.7195
-5.30317
-8.59632
-11.3264
-6.61932
-8.80508
-10.5749
-7.67107
-9.00094
-9.92388
-11.0799
-8.15151
-9.27705
-10.1821
-8.62701
-9.34834
-9.94299
-8.94799
-9.43473
-9.8592
-9.02043
-9.34011
-9.52672
-9.70796
-9.38846
-9.54593
-9.67729
-9.4695
-9.57512
-9.6624
-9.52742
-9.59507
-9.64506
-9.71088
-9.5473
-9.61716
-9.6829
-9.55385
-9.62229
-9.70381
-9.44514
-9.51183
-9.53794
-9.54706
-29.9266
-30.2432
-30.9352
-32.1525
-34.238
-38.0768
-46.7459
-79.0802
21.9247
-14.1529
-40.4378
12.8845
-9.74287
-27.2578
6.54796
-8.75965
-21.8665
5.80291
-4.8923
-9.06591
-14.5328
-3.45938
-8.53071
-12.4881
-5.41439
-8.75622
-11.2943
-6.91383
-8.94087
-9.96167
-11.7626
-7.45811
-9.24599
-10.561
-8.22608
-9.32959
-10.1871
-8.68665
-9.4235
-10.0533
-8.80891
-9.31806
-9.5242
-9.78364
-9.30065
-9.53772
-9.72487
-9.40938
-9.56773
-9.69148
-9.48608
-9.58705
-9.64214
-9.74448
-9.50298
-9.6111
-9.70952
-9.5164
-9.61857
-9.75449
-9.3825
-9.50134
-9.53134
-9.54105
)
;

boundaryField
{
    left
    {
        type            calculated;
        value           nonuniform List<scalar> 
32
(
-22.1988
-22.2606
-22.3781
-22.545
-22.7555
-23.0048
-23.2883
-23.6016
-23.9404
-24.3004
-24.6774
-25.0667
-25.464
-25.8647
-26.2641
-26.6576
-27.041
-27.4099
-27.7606
-28.0897
-28.3944
-28.6725
-28.9223
-29.1428
-29.3339
-29.4958
-29.6293
-29.7357
-29.8167
-29.874
-29.91
-29.9266
)
;
    }
    right
    {
        type            calculated;
        value           nonuniform List<scalar> 
32
(
-9.82783
-9.82602
-9.8226
-9.81778
-9.81175
-9.80468
-9.79672
-9.788
-9.77864
-9.76875
-9.75841
-9.74771
-9.73671
-9.72547
-9.71405
-9.70248
-9.69079
-9.67903
-9.66722
-9.65543
-9.6437
-9.63211
-9.62075
-9.60971
-9.59907
-9.5889
-9.57926
-9.57017
-9.56168
-9.5539
-9.54706
-9.54105
)
;
    }
    interface
    {
        type            calculated;
        value           nonuniform List<scalar> 
64
(
-29.9303
-30.2477
-30.9418
-32.1637
-34.2611
-38.1443
-47.1672
-88.1099
30.9037
-13.9751
-45.4639
17.9639
-9.65217
-30.5013
9.82482
-8.72078
-24.4508
8.42428
-4.77297
-9.09281
-15.6036
-2.37931
-8.50919
-13.1793
-4.7102
-8.74002
-11.7233
-6.4729
-8.92001
-9.97421
-12.164
-7.05155
-9.23508
-10.787
-7.99201
-9.32272
-10.3327
-8.53408
-9.41904
-10.169
-8.68611
-9.30991
-9.52271
-9.82885
-9.2497
-9.53413
-9.75369
-9.37468
-9.56439
-9.70932
-9.46243
-9.58344
-9.64027
-9.76465
-9.47737
-9.60816
-9.7257
-9.49473
-9.6164
-9.78484
-9.34639
-9.49695
-9.52831
-9.53817
)
;
    }
    bottom
    {
        type            calculated;
        value           nonuniform List<scalar> 
64
(
-22.1827
-22.1062
-21.954
-21.7285
-21.4327
-21.0715
-20.651
-20.1785
-19.6628
-19.1136
-18.541
-17.9552
-17.366
-16.7823
-16.212
-15.6617
-15.1366
-14.6406
-14.1763
-13.745
-13.3473
-12.9829
-12.6505
-12.3489
-12.0762
-11.8304
-11.6095
-11.4112
-11.2336
-11.0747
-10.9327
-10.8058
-10.6925
-10.5914
-10.5013
-10.421
-10.3495
-10.2859
-10.2295
-10.1794
-10.1351
-10.0959
-10.0613
-10.0308
-10.0039
-9.98019
-9.95934
-9.94097
-9.9248
-9.91056
-9.89799
-9.88691
-9.87712
-9.86848
-9.86087
-9.85418
-9.84833
-9.84328
-9.83899
-9.83542
-9.83257
-9.83044
-9.82901
-9.8283
)
;
    }
    defaultFaces
    {
        type            empty;
    }
}


// ************************************************************************* //
