/*--------------------------------*- C++ -*----------------------------------*\
| =========                 |                                                 |
| \\      /  F ield         | OpenFOAM: The Open Source CFD Toolbox           |
|  \\    /   O peration     | Version:  5.x                                   |
|   \\  /    A nd           | Web:      www.OpenFOAM.org                      |
|    \\/     M anipulation  |                                                 |
\*---------------------------------------------------------------------------*/
FoamFile
{
    version     2.0;
    format      ascii;
    class       volScalarField;
    location    "2";
    object      T;
}
// * * * * * * * * * * * * * * * * * * * * * * * * * * * * * * * * * * * * * //

dimensions      [0 0 0 1 0 0 0];

internalField   nonuniform List<scalar> 
2048
(
9.84063
9.84118
9.84228
9.8439
9.84602
9.84862
9.85164
9.85503
9.85874
9.86268
9.8668
9.87101
9.87524
9.87943
9.88353
9.88748
9.89125
9.89482
9.89815
9.90125
9.90411
9.90673
9.90912
9.91128
9.91324
9.91501
9.91659
9.91802
9.91929
9.92044
9.92146
9.92237
9.92318
9.92391
9.92456
9.92513
9.92565
9.9261
9.92651
9.92687
9.92719
9.92747
9.92772
9.92794
9.92813
9.9283
9.92845
9.92858
9.9287
9.9288
9.92889
9.92897
9.92904
9.9291
9.92916
9.9292
9.92925
9.92928
9.92931
9.92934
9.92936
9.92938
9.92939
9.92939
9.52842
9.53005
9.53329
9.5381
9.54441
9.55212
9.5611
9.57118
9.58219
9.59392
9.60614
9.61864
9.63121
9.64365
9.6558
9.66752
9.6787
9.68925
9.69912
9.70828
9.71672
9.72446
9.73151
9.7379
9.74368
9.74889
9.75357
9.75777
9.76153
9.7649
9.7679
9.77059
9.77299
9.77513
9.77703
9.77873
9.78025
9.78159
9.78279
9.78385
9.78478
9.78561
9.78634
9.78699
9.78756
9.78806
9.7885
9.78889
9.78923
9.78953
9.7898
9.79003
9.79024
9.79042
9.79058
9.79073
9.79085
9.79096
9.79105
9.79112
9.79118
9.79123
9.79126
9.79127
9.22863
9.23131
9.23664
9.24456
9.25494
9.26764
9.28243
9.29906
9.31721
9.33654
9.35668
9.37727
9.39796
9.41842
9.43838
9.45761
9.47592
9.4932
9.50934
9.52431
9.53809
9.5507
9.56218
9.57259
9.582
9.59046
9.59807
9.60489
9.61099
9.61645
9.62133
9.62569
9.62958
9.63305
9.63614
9.6389
9.64136
9.64354
9.64547
9.64719
9.64871
9.65006
9.65124
9.65229
9.65321
9.65402
9.65474
9.65537
9.65592
9.65641
9.65684
9.65722
9.65755
9.65785
9.65811
9.65834
9.65854
9.65871
9.65886
9.65899
9.65908
9.65916
9.65921
9.65923
8.9401
8.94381
8.95119
8.96215
8.97654
8.99416
9.0147
9.03779
9.06302
9.08987
9.11784
9.14641
9.17508
9.2034
9.23099
9.25752
9.28276
9.30652
9.3287
9.34922
9.3681
9.38535
9.40103
9.41524
9.42805
9.43958
9.44993
9.45921
9.46751
9.47493
9.48156
9.48748
9.49276
9.49748
9.50168
9.50543
9.50876
9.51172
9.51435
9.51669
9.51875
9.52057
9.52218
9.5236
9.52485
9.52595
9.52692
9.52777
9.52852
9.52918
9.52976
9.53028
9.53073
9.53113
9.53149
9.5318
9.53207
9.53231
9.53251
9.53268
9.53282
9.53292
9.53299
9.53302
8.66186
8.66658
8.67597
8.68994
8.7083
8.7308
8.75706
8.78663
8.81892
8.8533
8.88909
8.9256
8.96219
8.99827
9.03336
9.06704
9.09901
9.12905
9.15703
9.18287
9.2066
9.22825
9.2479
9.26567
9.28169
9.29609
9.309
9.32056
9.3309
9.34014
9.34839
9.35576
9.36233
9.3682
9.37343
9.37809
9.38224
9.38593
9.3892
9.3921
9.39467
9.39693
9.39893
9.40069
9.40225
9.40361
9.40481
9.40586
9.40679
9.40761
9.40833
9.40897
9.40953
9.41003
9.41047
9.41086
9.41121
9.4115
9.41176
9.41197
9.41214
9.41227
9.41235
9.4124
8.39307
8.39878
8.41016
8.4271
8.44941
8.47679
8.50881
8.54489
8.58432
8.62629
8.66995
8.71442
8.75892
8.80272
8.84521
8.8859
8.92444
8.96056
8.99412
9.02507
9.0534
9.07921
9.10259
9.12371
9.14271
9.15977
9.17505
9.18872
9.20094
9.21185
9.2216
9.2303
9.23807
9.24499
9.25117
9.25667
9.26157
9.26592
9.26979
9.27321
9.27623
9.27891
9.28126
9.28334
9.28516
9.28676
9.28817
9.28941
9.2905
9.29147
9.29231
9.29306
9.29373
9.29432
9.29484
9.2953
9.2957
9.29606
9.29636
9.29661
9.29681
9.29697
9.29707
9.29712
8.13303
8.13972
8.15305
8.17293
8.19918
8.23146
8.26928
8.31197
8.35865
8.40834
8.45997
8.5125
8.56494
8.61644
8.66627
8.71387
8.75882
8.80084
8.83977
8.87558
8.90828
8.938
8.96489
8.98911
9.01088
9.0304
9.04786
9.06347
9.07741
9.08985
9.10096
9.11088
9.11973
9.12762
9.13467
9.14094
9.14652
9.15148
9.15588
9.15978
9.16322
9.16626
9.16894
9.1713
9.17337
9.17519
9.17679
9.17819
9.17943
9.18052
9.18148
9.18233
9.18308
9.18375
9.18435
9.18487
9.18534
9.18574
9.18609
9.18638
9.18662
9.1868
9.18692
9.18698
7.88114
7.88878
7.90403
7.92682
7.95698
7.99419
8.0379
8.08732
8.14142
8.199
8.25878
8.31948
8.37993
8.43914
8.49627
8.55067
8.60189
8.64962
8.69372
8.73416
8.771
8.80439
8.83453
8.86164
8.88596
8.90773
8.92718
8.94455
8.96005
8.97388
8.98623
8.99724
9.00708
9.01586
9.02368
9.03066
9.03686
9.04237
9.04726
9.05159
9.05541
9.05878
9.06175
9.06435
9.06665
9.06866
9.07042
9.07197
9.07334
9.07454
9.07561
9.07655
9.07738
9.07812
9.07878
9.07937
9.07989
9.08034
9.08073
9.08106
9.08133
9.08153
9.08167
9.08174
7.63691
7.64547
7.66258
7.68823
7.72229
7.76445
7.81413
7.87045
7.93217
7.99787
8.06599
8.13503
8.2036
8.27055
8.33493
8.39605
8.4534
8.50667
8.55573
8.60056
8.64129
8.67811
8.71127
8.74103
8.76768
8.79149
8.81275
8.83171
8.84862
8.8637
8.87715
8.88916
8.89988
8.90945
8.91799
8.92559
8.93236
8.93837
8.9437
8.94841
8.95257
8.95624
8.95946
8.96229
8.96478
8.96696
8.96887
8.97055
8.97203
8.97333
8.97448
8.9755
8.9764
8.97721
8.97793
8.97857
8.97914
8.97964
8.98007
8.98044
8.98074
8.98096
8.98112
8.98119
7.39992
7.40935
7.42826
7.45669
7.49459
7.54172
7.59749
7.66089
7.7305
7.80458
7.8813
7.95886
8.03567
8.1104
8.18202
8.24976
8.31309
8.37172
8.42551
8.47451
8.51888
8.55888
8.59481
8.62699
8.65576
8.68143
8.70431
8.72469
8.74286
8.75904
8.77349
8.78638
8.7979
8.80818
8.81735
8.82553
8.8328
8.83925
8.84497
8.85003
8.85449
8.85842
8.86187
8.86489
8.86755
8.86987
8.87191
8.8737
8.87528
8.87667
8.87789
8.87898
8.87995
8.88081
8.88158
8.88227
8.88289
8.88343
8.88391
8.88431
8.88464
8.88489
8.88506
8.88514
7.16981
7.18007
7.20068
7.23179
7.27347
7.32556
7.38752
7.45822
7.536
7.6188
7.7044
7.7907
7.87587
7.95844
8.03726
8.11152
8.1807
8.24449
8.30281
8.35573
8.40349
8.44642
8.48488
8.51926
8.54994
8.57726
8.60159
8.62323
8.6425
8.65967
8.67499
8.68867
8.70089
8.71181
8.72155
8.73023
8.73795
8.7448
8.75087
8.75624
8.76096
8.76512
8.76876
8.77196
8.77475
8.7772
8.77935
8.78124
8.78289
8.78435
8.78564
8.78679
8.78781
8.78872
8.78954
8.79028
8.79094
8.79152
8.79204
8.79247
8.79283
8.79311
8.79329
8.79339
6.94632
6.95733
6.97952
7.01316
7.0585
7.11554
7.18379
7.26204
7.34835
7.44022
7.53502
7.63031
7.72398
7.81442
7.9004
7.98109
8.05596
8.12472
8.18733
8.24393
8.29482
8.34043
8.38119
8.41754
8.44992
8.47872
8.50432
8.52706
8.5473
8.56532
8.5814
8.59577
8.60862
8.6201
8.63035
8.63948
8.6476
8.65481
8.66119
8.66682
8.67178
8.67613
8.67994
8.68328
8.6862
8.68875
8.69099
8.69295
8.69468
8.6962
8.69754
8.69873
8.6998
8.70076
8.70162
8.7024
8.7031
8.70372
8.70427
8.70475
8.70513
8.70543
8.70564
8.70574
6.72921
6.74089
6.7645
6.80049
6.84934
6.91126
6.98589
7.07197
7.1672
7.26856
7.37293
7.47745
7.57977
7.6781
7.7712
7.8582
7.9386
8.01214
8.07881
8.13882
8.19259
8.24062
8.28344
8.32155
8.35544
8.38552
8.41223
8.43593
8.457
8.47575
8.49249
8.50747
8.52086
8.53284
8.54354
8.55307
8.56155
8.56906
8.57571
8.58158
8.58674
8.59126
8.59522
8.59867
8.60169
8.60433
8.60664
8.60866
8.61044
8.61201
8.6134
8.61463
8.61574
8.61673
8.61763
8.61844
8.61918
8.61985
8.62043
8.62094
8.62136
8.62169
8.62191
8.62202
6.51831
6.53055
6.5554
6.59351
6.64564
6.71233
6.79343
6.88764
6.99225
7.10359
7.21791
7.33193
7.44301
7.54926
7.6494
7.74259
7.82834
7.90646
7.97695
8.04012
8.09649
8.14669
8.19134
8.231
8.2662
8.29741
8.32507
8.34959
8.37135
8.39072
8.40803
8.42352
8.4374
8.44982
8.46091
8.4708
8.47958
8.48737
8.49426
8.50033
8.50566
8.51032
8.5144
8.51795
8.52104
8.52375
8.52612
8.52819
8.53001
8.53162
8.53304
8.53431
8.53544
8.53647
8.5374
8.53825
8.53902
8.53972
8.54034
8.54089
8.54134
8.54169
8.54193
8.54205
6.31348
6.32616
6.35203
6.39196
6.4471
6.51839
6.60602
6.70871
6.82324
6.94508
7.06977
7.19356
7.31352
7.42767
7.53476
7.63398
7.72492
7.80741
7.88148
7.94753
8.00623
8.05835
8.1046
8.14561
8.18195
8.21412
8.24258
8.26778
8.29012
8.31
8.32778
8.34372
8.35802
8.37083
8.38227
8.39246
8.40151
8.40954
8.41663
8.42287
8.42835
8.43313
8.4373
8.44092
8.44408
8.44684
8.44925
8.45136
8.45322
8.45485
8.4563
8.45759
8.45874
8.45979
8.46075
8.46163
8.46244
8.46317
8.46384
8.46442
8.4649
8.46528
8.46554
8.46567
6.11462
6.12761
6.15423
6.19565
6.25343
6.32907
6.42327
6.53481
6.6599
6.79285
6.92835
7.06217
7.19108
7.31308
7.42702
7.53212
7.62805
7.71471
7.79212
7.86076
7.92151
7.97531
8.02294
8.06511
8.10242
8.13539
8.16452
8.19026
8.21307
8.23335
8.25152
8.26785
8.28251
8.29566
8.30741
8.31787
8.32716
8.33538
8.34265
8.34904
8.35464
8.35952
8.36376
8.36744
8.37064
8.37343
8.37587
8.37801
8.37988
8.38154
8.383
8.38431
8.38548
8.38655
8.38753
8.38844
8.38928
8.39005
8.39075
8.39137
8.39189
8.39229
8.39257
8.39271
5.92165
5.93481
5.9619
6.0044
6.06439
6.14404
6.24476
6.36561
6.50203
6.64675
6.79349
6.93761
7.07553
7.20529
7.32593
7.43673
7.53746
7.62811
7.70861
7.77954
7.84204
7.89727
7.94607
7.98921
8.02735
8.06098
8.09064
8.11683
8.13998
8.16056
8.17904
8.1957
8.21069
8.22413
8.23615
8.24684
8.25633
8.26473
8.27214
8.27866
8.28436
8.28932
8.2936
8.29732
8.30054
8.30336
8.30581
8.30797
8.30986
8.31152
8.313
8.31431
8.3155
8.31658
8.31759
8.31852
8.31939
8.32019
8.32093
8.32158
8.32214
8.32258
8.32288
8.32303
5.73454
5.7477
5.77494
5.81807
5.87973
5.96296
6.0701
6.20074
6.34943
6.50666
6.66507
6.81975
6.96666
7.10403
7.23124
7.34753
7.45286
7.54732
7.63067
7.70356
7.76752
7.82395
7.87373
7.91767
7.95648
7.99066
8.02073
8.04724
8.07063
8.09142
8.11013
8.12708
8.14236
8.15606
8.16832
8.17921
8.18886
8.19741
8.20495
8.21157
8.21736
8.22237
8.22668
8.23041
8.23365
8.23647
8.23894
8.2411
8.24299
8.24466
8.24614
8.24745
8.24865
8.24974
8.25076
8.25172
8.25262
8.25345
8.25423
8.25493
8.25553
8.256
8.25632
8.25648
5.55324
5.56624
5.59329
5.63655
5.69926
5.78547
5.89884
6.03983
6.20198
6.3725
6.54296
6.70846
6.8643
7.00906
7.14269
7.26423
7.37394
7.47212
7.55806
7.63257
7.69766
7.75508
7.80564
7.85022
7.8896
7.92419
7.95456
7.98131
8.00484
8.02572
8.0446
8.06181
8.07734
8.09128
8.10375
8.11481
8.12459
8.13327
8.1409
8.1476
8.15347
8.15852
8.16284
8.16656
8.1698
8.17262
8.17508
8.17724
8.17914
8.1808
8.18228
8.18359
8.18478
8.18589
8.18692
8.1879
8.18882
8.18969
8.1905
8.19125
8.19189
8.1924
8.19274
8.19291
5.37772
5.3904
5.41692
5.45976
5.52281
5.61127
5.73052
5.88247
6.05961
6.24423
6.42703
6.60366
6.76827
6.92011
7.06004
7.18657
7.30042
7.40226
7.49055
7.56626
7.63215
7.69039
7.74155
7.78661
7.82647
7.86137
7.89192
7.91883
7.94239
7.96327
7.98224
7.99971
8.01547
8.02961
8.04228
8.05347
8.06336
8.07214
8.07985
8.08662
8.09255
8.09763
8.10193
8.10563
8.10886
8.11167
8.11412
8.11627
8.11816
8.11981
8.12128
8.12259
8.12377
8.12488
8.12593
8.12693
8.12787
8.12878
8.12963
8.13041
8.13111
8.13166
8.13202
8.1322
5.20797
5.22016
5.2458
5.28765
5.35024
5.44005
5.56462
5.7282
5.92235
6.12185
6.31711
6.50528
6.67839
6.83687
6.98305
7.11424
7.23195
7.33753
7.42792
7.50437
7.5707
7.62963
7.68123
7.7266
7.76689
7.80198
7.83261
7.85962
7.88313
7.90387
7.92289
7.94062
7.9566
7.9709
7.98376
7.99506
8.00502
8.01389
8.02166
8.02848
8.03447
8.03956
8.04382
8.04749
8.05069
8.05348
8.05591
8.05806
8.05993
8.06157
8.06303
8.06432
8.06549
8.06659
8.06766
8.06867
8.06964
8.07058
8.07146
8.0723
8.07306
8.07365
8.07403
8.07422
5.04397
5.05551
5.07994
5.12022
5.18146
5.27152
5.40059
5.57646
5.79037
6.00544
6.213
6.4133
6.59449
6.759
6.91152
7.04696
7.16819
7.27775
7.36999
7.44662
7.51298
7.57257
7.62443
7.66996
7.71067
7.74584
7.77643
7.80353
7.82687
7.84735
7.86634
7.88439
7.90057
7.915
7.92805
7.93942
7.94942
7.95838
7.96618
7.97303
7.9791
7.98418
7.98838
7.99198
7.99517
7.99792
8.00032
8.00246
8.00431
8.00593
8.00738
8.00865
8.0098
8.0109
8.01199
8.01302
8.014
8.01497
8.01589
8.01678
8.0176
8.01824
8.01864
8.01884
4.88569
4.89644
4.91933
4.95746
5.01643
5.10544
5.23782
5.42657
5.66402
5.89507
6.11438
6.32778
6.51637
6.68607
6.8453
6.98445
7.1087
7.22281
7.3166
7.39271
7.45868
7.51901
7.57095
7.61643
7.65764
7.69277
7.72318
7.7504
7.77346
7.79353
7.81242
7.8309
7.84725
7.86175
7.87502
7.88643
7.89641
7.90548
7.91329
7.92014
7.92631
7.93137
7.93548
7.939
7.94216
7.94488
7.94724
7.94937
7.9512
7.95279
7.95423
7.95547
7.95659
7.95768
7.95879
7.95983
7.96084
7.96184
7.96279
7.96373
7.96464
7.96533
7.96574
7.96594
4.7331
4.74294
4.76399
4.79941
4.85515
4.94161
5.07567
5.2776
5.54394
5.79091
6.02076
6.24889
6.44388
6.61755
6.78431
6.92642
7.05302
7.17264
7.2676
7.34237
7.40743
7.46879
7.52059
7.56577
7.60765
7.6426
7.67266
7.7001
7.72278
7.74222
7.76094
7.78002
7.79651
7.81101
7.82457
7.83595
7.84587
7.85508
7.86286
7.86968
7.876
7.88102
7.88499
7.88841
7.89157
7.89423
7.89655
7.89868
7.90047
7.90203
7.90346
7.90467
7.90575
7.90683
7.90797
7.90902
7.91003
7.91107
7.91206
7.91305
7.91406
7.91479
7.91522
7.91542
4.58615
4.59496
4.61393
4.64614
4.69768
4.77992
4.91344
5.12835
5.43118
5.69312
5.93143
6.17696
6.37683
6.55278
6.72862
6.87258
7.00053
7.1273
7.22291
7.29527
7.35885
7.42181
7.47316
7.51769
7.56062
7.59517
7.62465
7.65254
7.67468
7.69326
7.71171
7.73168
7.74822
7.76262
7.77658
7.78787
7.79764
7.80706
7.81476
7.82152
7.82805
7.83302
7.8368
7.84009
7.84327
7.84587
7.84812
7.85027
7.85202
7.85353
7.85497
7.85614
7.85717
7.85823
7.85942
7.86047
7.86148
7.86257
7.86357
7.86461
7.86575
7.86653
7.86697
7.86716
4.44477
4.45249
4.46915
4.49771
4.54413
4.62035
4.75044
4.97713
5.32731
5.6019
5.84532
6.11261
6.31503
6.49087
6.67847
6.82266
6.95047
7.08697
7.18245
7.25111
7.31246
7.37803
7.42848
7.4719
7.51648
7.55033
7.57893
7.60764
7.62905
7.64649
7.6645
7.68581
7.70229
7.71642
7.73097
7.74207
7.75158
7.76134
7.76889
7.77551
7.78238
7.78726
7.7908
7.79393
7.79717
7.79969
7.80185
7.80405
7.80574
7.80719
7.80866
7.80978
7.81074
7.81177
7.81303
7.81407
7.81507
7.81623
7.81723
7.81831
7.81962
7.82045
7.82088
7.82106
4.3089
4.31546
4.32967
4.3542
4.39467
4.463
4.58604
4.82162
5.23468
5.51744
5.76088
6.05682
6.2583
6.43065
6.63436
6.77639
6.90185
7.05205
7.14615
7.20955
7.26776
7.33752
7.38641
7.42804
7.47524
7.50793
7.53522
7.56537
7.5858
7.60174
7.6191
7.6424
7.6586
7.67223
7.6877
7.69844
7.70755
7.71785
7.72514
7.73152
7.73892
7.74364
7.74688
7.7498
7.75318
7.75558
7.75764
7.75993
7.76154
7.76291
7.76443
7.76549
7.76636
7.76735
7.76872
7.76974
7.77071
7.77196
7.77295
7.77404
7.77558
7.77645
7.77686
7.77702
4.17845
4.1838
4.19545
4.21569
4.24949
4.30811
4.41973
4.65856
5.15664
5.43985
5.6759
6.01112
6.20642
6.37053
6.59719
6.7335
6.85338
7.02321
7.11393
7.17024
7.2241
7.30049
7.34678
7.38566
7.43701
7.46786
7.49321
7.52576
7.54482
7.55886
7.57523
7.60148
7.61705
7.62986
7.64672
7.65688
7.66537
7.67653
7.6834
7.6894
7.69759
7.70208
7.70493
7.70759
7.71122
7.71347
7.71536
7.71781
7.71932
7.72058
7.7222
7.72318
7.72394
7.72488
7.7264
7.72738
7.7283
7.72967
7.73061
7.7317
7.73356
7.73443
7.73481
7.73495
4.05331
4.05745
4.06647
4.08223
4.10884
4.15609
4.2513
4.48347
5.09791
5.36916
5.58732
5.97777
6.15913
6.30843
6.56833
6.69372
6.80335
7.0015
7.08569
7.13285
7.1807
7.26732
7.30945
7.34424
7.40198
7.42996
7.45253
7.48891
7.50603
7.5177
7.53257
7.56317
7.57755
7.58905
7.60806
7.61728
7.62486
7.63735
7.64357
7.64899
7.65838
7.66249
7.66485
7.66719
7.67122
7.67324
7.67492
7.67763
7.67899
7.6801
7.68189
7.68276
7.68339
7.68424
7.68601
7.6869
7.68773
7.68928
7.69015
7.69119
7.69346
7.69432
7.69464
7.69476
3.93337
3.93629
3.94268
3.95388
3.97294
4.00748
4.08098
4.2902
5.06495
5.30515
5.49097
5.96002
6.11608
6.24158
6.54985
6.65675
6.74954
6.98846
7.0612
7.09707
7.1366
7.23863
7.27428
7.3031
7.37052
7.39411
7.41271
7.45499
7.46933
7.47815
7.49073
7.52765
7.53999
7.54955
7.57177
7.57955
7.58582
7.60034
7.60557
7.61009
7.62126
7.62477
7.62655
7.62846
7.63314
7.63482
7.6362
7.63933
7.64046
7.64138
7.64342
7.64415
7.64462
7.64534
7.64746
7.64821
7.64892
7.65074
7.65147
7.65238
7.65525
7.65601
7.65627
7.65635
3.81849
3.82022
3.824
3.83065
3.84204
3.86296
3.90971
4.07043
5.06649
5.24731
5.38133
5.96241
6.07682
6.16637
6.54463
6.62229
6.68906
6.98628
7.04008
7.06264
7.09058
7.21532
7.24108
7.26139
7.34316
7.36015
7.3732
7.4243
7.4346
7.44012
7.44924
7.49523
7.50427
7.51102
7.53798
7.54359
7.54799
7.56554
7.56929
7.57251
7.58626
7.58883
7.58994
7.59128
7.59692
7.59813
7.59909
7.60285
7.60366
7.60429
7.60675
7.60726
7.60756
7.60808
7.6107
7.61125
7.61175
7.61397
7.61449
7.61517
7.61885
7.61944
7.61961
7.61966
3.70855
3.70912
3.71036
3.71256
3.71633
3.7233
3.73951
3.81304
5.11405
5.19466
5.25122
5.99109
6.04069
6.07814
6.55665
6.58996
6.61821
6.99797
7.02167
7.02943
7.04112
7.19864
7.20965
7.21804
7.32068
7.32792
7.33328
7.39727
7.40167
7.40356
7.4075
7.46633
7.47026
7.47304
7.50689
7.50928
7.5111
7.53306
7.53465
7.536
7.55344
7.55456
7.55494
7.55549
7.56256
7.56307
7.56346
7.56815
7.56849
7.56875
7.57181
7.57202
7.57213
7.57235
7.57569
7.57593
7.57614
7.57892
7.57914
7.57944
7.58425
7.58452
7.58457
7.58459
)
;

boundaryField
{
    left
    {
        type            zeroGradient;
    }
    right
    {
        type            zeroGradient;
    }
    interface
    {
        type            fixedValue;
        value           nonuniform List<scalar> 
64
(
3.65479
3.65479
3.65479
3.65479
3.65479
3.65479
3.65479
3.65479
5.16956
5.16956
5.16956
6.02335
6.02335
6.02335
6.5743
6.5743
6.5743
7.0131
7.0131
7.0131
7.0131
7.19437
7.19437
7.19437
7.31222
7.31222
7.31222
7.38565
7.38565
7.38565
7.38565
7.45367
7.45367
7.45367
7.49254
7.49254
7.49254
7.51773
7.51773
7.51773
7.53784
7.53784
7.53784
7.53784
7.54595
7.54595
7.54595
7.55131
7.55131
7.55131
7.55481
7.55481
7.55481
7.55481
7.55867
7.55867
7.55867
7.56187
7.56187
7.56187
7.56746
7.56746
7.56746
7.56746
)
;
    }
    bottom
    {
        type            fixedValue;
        value           uniform 10;
    }
    defaultFaces
    {
        type            empty;
    }
}


// ************************************************************************* //
