/*--------------------------------*- C++ -*----------------------------------*\
| =========                 |                                                 |
| \\      /  F ield         | OpenFOAM: The Open Source CFD Toolbox           |
|  \\    /   O peration     | Version:  5.x                                   |
|   \\  /    A nd           | Web:      www.OpenFOAM.org                      |
|    \\/     M anipulation  |                                                 |
\*---------------------------------------------------------------------------*/
FoamFile
{
    version     2.0;
    format      ascii;
    class       volScalarField;
    location    "10.8";
    object      gradTy;
}
// * * * * * * * * * * * * * * * * * * * * * * * * * * * * * * * * * * * * * //

dimensions      [0 -1 0 1 0 0 0];

internalField   nonuniform List<scalar> 
2048
(
-20.1545
-20.0576
-19.865
-19.5787
-19.2023
-18.741
-18.2014
-17.5921
-16.923
-16.2053
-15.451
-14.6724
-13.8813
-13.0892
-12.3059
-11.5402
-10.7993
-10.0889
-9.41314
-8.77472
-8.17513
-7.61481
-7.09329
-6.60944
-6.16165
-5.74797
-5.36623
-5.01422
-4.68968
-4.39048
-4.11459
-3.86015
-3.62551
-3.40918
-3.20987
-3.02644
-2.85785
-2.70321
-2.56167
-2.43246
-2.31484
-2.20808
-2.11149
-2.02437
-1.94605
-1.87587
-1.81317
-1.75735
-1.70782
-1.66402
-1.62544
-1.5916
-1.56204
-1.53637
-1.51421
-1.49522
-1.4791
-1.4656
-1.45446
-1.4455
-1.43853
-1.43342
-1.43008
-1.42842
-20.2329
-20.1352
-19.9407
-19.6515
-19.2711
-18.8043
-18.2579
-17.6405
-16.9623
-16.2349
-15.4707
-14.6824
-13.8823
-13.082
-12.2916
-11.5201
-10.7747
-10.0609
-9.38292
-8.7433
-8.14338
-7.58342
-7.0628
-6.58027
-6.13406
-5.72211
-5.34219
-4.99198
-4.66919
-4.37162
-4.09722
-3.84413
-3.61068
-3.39541
-3.19703
-3.01441
-2.84656
-2.6926
-2.55169
-2.42308
-2.30604
-2.19985
-2.10381
-2.01724
-1.93946
-1.86979
-1.8076
-1.75225
-1.70317
-1.65979
-1.6216
-1.58811
-1.55888
-1.53351
-1.51162
-1.49287
-1.47697
-1.46366
-1.45268
-1.44385
-1.437
-1.43198
-1.42869
-1.42706
-20.3818
-20.2825
-20.0848
-19.7903
-19.4021
-18.925
-18.3656
-17.7327
-17.0371
-16.291
-15.5078
-14.7009
-13.8835
-13.0675
-12.2638
-11.4812
-10.7271
-10.0071
-9.32499
-8.68321
-8.08277
-7.52362
-7.00484
-6.52487
-6.08173
-5.67314
-5.2967
-4.94995
-4.63048
-4.33603
-4.06447
-3.81393
-3.58274
-3.36944
-3.1728
-2.99172
-2.82526
-2.67255
-2.53283
-2.40535
-2.28939
-2.18427
-2.0893
-2.00376
-1.927
-1.85831
-1.79706
-1.74261
-1.69438
-1.65179
-1.61433
-1.58153
-1.55292
-1.52811
-1.50673
-1.48845
-1.47296
-1.46
-1.44934
-1.44077
-1.43412
-1.42926
-1.42607
-1.4245
-20.5929
-20.4916
-20.2895
-19.9878
-19.589
-19.0974
-18.5195
-17.8643
-17.1435
-16.3704
-15.5596
-14.726
-13.8836
-13.0453
-12.2225
-11.4243
-10.6581
-9.92939
-9.24174
-8.59715
-7.99625
-7.4385
-6.92254
-6.44641
-6.00777
-5.60406
-5.23264
-4.89085
-4.57615
-4.28613
-4.0186
-3.77165
-3.54361
-3.33307
-3.13884
-2.95989
-2.79534
-2.64439
-2.50631
-2.38039
-2.26597
-2.16235
-2.06886
-1.9848
-1.90946
-1.84218
-1.78226
-1.72908
-1.68204
-1.64057
-1.60416
-1.5723
-1.54458
-1.52056
-1.4999
-1.48226
-1.46735
-1.45489
-1.44466
-1.43646
-1.43011
-1.42547
-1.42244
-1.42094
-20.8588
-20.7553
-20.5482
-20.2381
-19.8265
-19.3168
-18.7154
-18.0317
-17.2783
-16.4702
-15.6237
-14.7555
-13.8811
-13.0145
-12.1675
-11.3497
-10.5685
-9.82914
-9.13489
-8.48724
-7.88621
-7.33067
-6.81864
-6.34765
-5.91493
-5.51756
-5.15261
-4.81719
-4.50856
-4.22415
-3.9617
-3.71924
-3.4951
-3.28796
-3.09668
-2.92033
-2.75812
-2.60931
-2.47323
-2.34925
-2.23671
-2.13497
-2.04334
-1.96112
-1.8876
-1.82206
-1.76383
-1.71225
-1.6667
-1.62663
-1.59151
-1.56086
-1.53422
-1.5112
-1.49144
-1.4746
-1.4604
-1.44857
-1.43889
-1.43114
-1.42517
-1.42081
-1.41796
-1.41656
-21.1731
-21.0674
-20.8553
-20.5361
-20.1102
-19.5797
-18.9504
-18.2322
-17.4389
-16.5878
-15.6976
-14.7873
-13.8742
-12.9736
-12.098
-11.2572
-10.4586
-9.70722
-9.00578
-8.35519
-7.7547
-7.20238
-6.69554
-6.23107
-5.80568
-5.41607
-5.05898
-4.73124
-4.42988
-4.15217
-3.89571
-3.65848
-3.43888
-3.23562
-3.0477
-2.87431
-2.71475
-2.56837
-2.43459
-2.31282
-2.20247
-2.10291
-2.01347
-1.93343
-1.86205
-1.79859
-1.74234
-1.69263
-1.64885
-1.61042
-1.57682
-1.54756
-1.5222
-1.50035
-1.48163
-1.46573
-1.45236
-1.44127
-1.43222
-1.42502
-1.41948
-1.41546
-1.41283
-1.41155
-21.5296
-21.4221
-21.2055
-20.8776
-20.4367
-19.8833
-19.2221
-18.4634
-17.623
-16.7208
-15.779
-14.8192
-13.8612
-12.9214
-12.0132
-11.1465
-10.3287
-9.56424
-8.85546
-8.20243
-7.60346
-7.05564
-6.5554
-6.0989
-5.68228
-5.30181
-4.95389
-4.63507
-4.34212
-4.07208
-3.82241
-3.59105
-3.37644
-3.17743
-2.99317
-2.82298
-2.66629
-2.52256
-2.39128
-2.27194
-2.16402
-2.0669
-1.97993
-1.90236
-1.83341
-1.77231
-1.71831
-1.67073
-1.62893
-1.59235
-1.56045
-1.53277
-1.50884
-1.48828
-1.47074
-1.45588
-1.44345
-1.43318
-1.42485
-1.41825
-1.41321
-1.40957
-1.4072
-1.40605
-21.9225
-21.814
-21.5943
-21.2589
-20.8033
-20.2257
-19.5291
-18.7241
-17.8289
-16.8673
-15.8656
-14.849
-13.8399
-12.8563
-11.912
-11.0171
-10.1786
-9.40063
-8.68479
-8.03022
-7.4341
-6.89231
-6.40023
-5.9532
-5.54678
-5.17679
-4.8393
-4.53058
-4.24708
-3.98561
-3.74343
-3.51844
-3.30917
-3.11464
-2.9342
-2.76735
-2.61366
-2.47271
-2.34407
-2.22732
-2.122
-2.02754
-1.94329
-1.86846
-1.80222
-1.74373
-1.69221
-1.64696
-1.60734
-1.57278
-1.54275
-1.51678
-1.49442
-1.47528
-1.459
-1.44528
-1.43385
-1.42448
-1.41693
-1.41101
-1.40652
-1.4033
-1.40122
-1.40021
-22.3463
-22.238
-22.0172
-21.6765
-21.2079
-20.6056
-19.8705
-19.0132
-18.0551
-17.0251
-15.9549
-14.8743
-13.8084
-12.7767
-11.7934
-10.8685
-10.0084
-9.21675
-8.4945
-7.83971
-7.24812
-6.71414
-6.23192
-5.79591
-5.40107
-5.04284
-4.71699
-4.41947
-4.14644
-3.89437
-3.66029
-3.44204
-3.23829
-3.04834
-2.87178
-2.70832
-2.55769
-2.41958
-2.29366
-2.17959
-2.077
-1.98538
-1.90407
-1.83224
-1.76895
-1.7133
-1.66447
-1.62173
-1.58444
-1.55204
-1.52401
-1.49987
-1.47919
-1.46155
-1.44662
-1.4341
-1.42375
-1.41533
-1.40863
-1.40343
-1.39954
-1.39678
-1.39501
-1.39416
-22.7954
-22.689
-22.4701
-22.1277
-21.6487
-21.0225
-20.2462
-19.3305
-18.3005
-17.1923
-16.0446
-14.8925
-13.7645
-12.6811
-11.6565
-10.7002
-9.81792
-9.01289
-8.28529
-7.632
-7.04698
-6.52282
-6.05227
-5.62883
-5.24691
-4.90164
-4.58855
-4.3033
-4.04171
-3.79983
-3.57435
-3.36309
-3.16493
-2.97951
-2.80677
-2.64667
-2.4991
-2.36383
-2.24064
-2.1293
-2.02951
-1.94088
-1.86273
-1.79413
-1.73403
-1.68143
-1.63547
-1.59538
-1.56055
-1.53043
-1.5045
-1.4823
-1.46337
-1.44731
-1.43378
-1.42252
-1.41329
-1.40588
-1.40006
-1.39563
-1.39238
-1.39012
-1.38868
-1.38801
-23.2643
-23.162
-22.9489
-22.6096
-22.1247
-21.4765
-20.657
-19.676
-18.5641
-17.3668
-16.132
-14.9012
-13.706
-12.568
-11.5004
-10.5119
-9.60731
-8.78934
-8.05778
-7.40815
-6.83212
-6.32003
-5.86304
-5.45369
-5.08592
-4.75471
-4.45541
-4.18345
-3.93425
-3.70332
-3.4869
-3.28272
-3.09004
-2.90899
-2.73992
-2.58308
-2.43851
-2.30605
-2.18556
-2.07692
-1.97997
-1.89444
-1.81966
-1.75453
-1.69785
-1.64849
-1.60554
-1.56823
-1.53595
-1.50819
-1.48445
-1.46426
-1.44716
-1.43274
-1.42066
-1.41068
-1.4026
-1.39622
-1.39134
-1.38772
-1.38515
-1.38342
-1.38234
-1.38186
-23.7473
-23.6517
-23.4494
-23.1197
-22.635
-21.9685
-21.1044
-20.0505
-18.845
-17.5464
-16.2144
-14.8974
-13.6309
-12.436
-11.3245
-10.3034
-9.37667
-8.54639
-7.81253
-7.16921
-6.60505
-6.10748
-5.66595
-5.27214
-4.9196
-4.60339
-4.31884
-4.06113
-3.82528
-3.60611
-3.39912
-3.20195
-3.01448
-2.8375
-2.67184
-2.51811
-2.37646
-2.24673
-2.12887
-2.02286
-1.92873
-1.8464
-1.77519
-1.7138
-1.66076
-1.61482
-1.575
-1.54054
-1.51089
-1.48555
-1.46406
-1.44595
-1.43075
-1.418
-1.40738
-1.39869
-1.39178
-1.38647
-1.38255
-1.37979
-1.37793
-1.37677
-1.37606
-1.37579
-24.2389
-24.1531
-23.9675
-23.6553
-23.1792
-22.5
-21.5906
-20.4555
-19.1423
-17.7286
-16.2885
-14.8784
-13.5369
-12.2841
-11.1284
-10.075
-9.1263
-8.2843
-7.55005
-6.91625
-6.3673
-5.88687
-5.46272
-5.08574
-4.7493
-4.44888
-4.17993
-3.93738
-3.71591
-3.50935
-3.31211
-3.1217
-2.93897
-2.76562
-2.60304
-2.45225
-2.31342
-2.18633
-2.07099
-1.96749
-1.87607
-1.79701
-1.72962
-1.67225
-1.62308
-1.58071
-1.54413
-1.51257
-1.48558
-1.4627
-1.44351
-1.42753
-1.41427
-1.40322
-1.39407
-1.38666
-1.38092
-1.37669
-1.37376
-1.3719
-1.3708
-1.37024
-1.36993
-1.36988
-24.7334
-24.6609
-24.4989
-24.2138
-23.7569
-23.0732
-22.1193
-20.893
-19.455
-17.9103
-16.3511
-14.8409
-13.4222
-12.1115
-10.912
-9.82701
-8.85675
-8.00324
-7.27069
-6.65036
-6.12058
-5.65997
-5.25501
-4.89601
-4.57624
-4.29223
-4.03961
-3.81306
-3.60709
-3.41417
-3.22696
-3.04277
-2.8641
-2.69383
-2.5339
-2.38588
-2.24982
-2.12523
-2.01229
-1.91111
-1.82222
-1.74647
-1.68321
-1.63019
-1.58512
-1.54645
-1.51316
-1.48451
-1.46019
-1.4398
-1.42293
-1.40914
-1.39788
-1.38855
-1.38083
-1.37467
-1.37009
-1.36695
-1.36505
-1.36413
-1.36381
-1.3639
-1.36399
-1.36418
-25.2251
-25.1697
-25.0389
-24.7922
-24.368
-23.691
-22.695
-21.366
-19.7816
-18.0879
-16.3983
-14.7815
-13.2845
-11.9177
-10.6755
-9.5602
-8.56882
-7.70324
-6.97457
-6.37269
-5.86673
-5.42857
-5.04449
-4.7044
-4.4015
-4.13429
-3.89868
-3.68886
-3.49963
-3.32165
-3.14471
-2.96585
-2.79033
-2.62249
-2.46471
-2.31931
-2.18601
-2.0638
-1.9531
-1.85401
-1.76732
-1.69491
-1.63617
-1.58791
-1.54714
-1.51229
-1.48234
-1.45656
-1.43488
-1.41698
-1.40244
-1.39088
-1.38169
-1.37409
-1.36774
-1.36279
-1.35934
-1.35731
-1.35645
-1.35651
-1.35703
-1.35779
-1.35831
-1.35875
-25.7085
-25.6741
-25.5827
-25.3874
-25.012
-24.3569
-23.324
-21.8785
-20.1199
-18.257
-16.4264
-14.6965
-13.1222
-11.7029
-10.4193
-9.27578
-8.26375
-7.38404
-6.66148
-6.08449
-5.60793
-5.19449
-4.83275
-4.51236
-4.22596
-3.97579
-3.7578
-3.56522
-3.3942
-3.23289
-3.06649
-2.8915
-2.71795
-2.55189
-2.39561
-2.25278
-2.12238
-2.00232
-1.89375
-1.79648
-1.71145
-1.64237
-1.58869
-1.54571
-1.5094
-1.47847
-1.45187
-1.42885
-1.40977
-1.39436
-1.38212
-1.37285
-1.36581
-1.35995
-1.35489
-1.35106
-1.34872
-1.34779
-1.348
-1.34909
-1.35048
-1.35196
-1.35293
-1.35361
-26.1784
-26.1689
-26.1254
-25.9955
-25.6883
-25.0752
-24.0144
-22.4359
-20.466
-18.4117
-16.4316
-14.5817
-12.9336
-11.4682
-10.1441
-8.97537
-7.9434
-7.04489
-6.33067
-5.78716
-5.34674
-4.95944
-4.62129
-4.32135
-4.05024
-3.81725
-3.61758
-3.44231
-3.29127
-3.14908
-2.99352
-2.82006
-2.64712
-2.48226
-2.32663
-2.18647
-2.05928
-1.94103
-1.83454
-1.7388
-1.65457
-1.58881
-1.54097
-1.50389
-1.47214
-1.44517
-1.42193
-1.4015
-1.38496
-1.37204
-1.36204
-1.35511
-1.35036
-1.34624
-1.34232
-1.3395
-1.33825
-1.33842
-1.33972
-1.34189
-1.34421
-1.34644
-1.34787
-1.34881
-26.6298
-26.6488
-26.6617
-26.612
-26.3955
-25.8504
-24.7766
-23.0461
-20.8138
-18.5452
-16.411
-14.4322
-12.7173
-11.2157
-9.85024
-8.66105
-7.61064
-6.68423
-5.98067
-5.48244
-5.08641
-4.72493
-4.41151
-4.13295
-3.87469
-3.65906
-3.47866
-3.32001
-3.19109
-3.07154
-2.92723
-2.75165
-2.57779
-2.41383
-2.25762
-2.12049
-1.99715
-1.88011
-1.77579
-1.68137
-1.59653
-1.53406
-1.4932
-1.46284
-1.43556
-1.41259
-1.39274
-1.37457
-1.3605
-1.3501
-1.34222
-1.33771
-1.33544
-1.33309
-1.33006
-1.32813
-1.32794
-1.32921
-1.33164
-1.33495
-1.33824
-1.34127
-1.34317
-1.34436
-27.0581
-27.1088
-27.186
-27.2318
-27.1312
-26.687
-25.6236
-23.7198
-21.1532
-18.6488
-16.3633
-14.2418
-12.4719
-10.9496
-9.53745
-8.33534
-7.26992
-6.29919
-5.60898
-5.17254
-4.83111
-4.49197
-4.20459
-3.94906
-3.69911
-3.50142
-3.34186
-3.1977
-3.09361
-3.00182
-2.86943
-2.68593
-2.50971
-2.34699
-2.18819
-2.0549
-1.93659
-1.81955
-1.7178
-1.6247
-1.53698
-1.4778
-1.4456
-1.42303
-1.39977
-1.38086
-1.36451
-1.34807
-1.33644
-1.32865
-1.32265
-1.32066
-1.32117
-1.32062
-1.31812
-1.31693
-1.31782
-1.32018
-1.32375
-1.32827
-1.33261
-1.33646
-1.33885
-1.34028
-27.4595
-27.5445
-27.6927
-27.8488
-27.8916
-27.5892
-26.572
-24.4731
-21.468
-18.7121
-16.2904
-14.002
-12.1963
-10.6768
-9.20372
-8.00124
-6.92827
-5.88482
-5.21175
-4.86041
-4.58645
-4.26066
-4.00143
-3.77223
-3.52262
-3.34438
-3.20846
-3.07415
-2.99836
-2.94181
-2.82253
-2.6219
-2.4424
-2.2824
-2.11761
-1.9897
-1.87844
-1.75911
-1.66091
-1.5696
-1.47534
-1.41957
-1.39847
-1.38505
-1.36482
-1.3501
-1.3375
-1.32193
-1.31279
-1.30784
-1.30326
-1.30394
-1.30768
-1.30901
-1.30648
-1.30586
-1.30788
-1.31131
-1.31607
-1.32186
-1.32734
-1.33203
-1.33492
-1.33657
-27.8306
-27.9516
-28.1762
-28.4561
-28.671
-28.5597
-27.6417
-25.3297
-21.7321
-18.7224
-16.2004
-13.7
-11.8897
-10.4085
-8.8439
-7.66212
-6.59679
-5.43288
-4.78346
-4.55014
-4.36011
-4.02947
-3.80261
-3.60611
-3.34312
-3.18781
-3.0806
-2.94722
-2.9044
-2.89382
-2.78987
-2.55754
-2.3751
-2.22131
-2.04458
-1.92485
-1.82401
-1.69815
-1.60545
-1.51731
-1.4106
-1.35868
-1.35222
-1.34973
-1.33057
-1.32037
-1.3121
-1.29596
-1.28953
-1.28786
-1.28392
-1.28749
-1.29512
-1.29848
-1.29506
-1.29486
-1.29817
-1.3026
-1.30857
-1.31573
-1.32246
-1.328
-1.33139
-1.33324
-28.1688
-28.3266
-28.6312
-29.0459
-29.4615
-29.5992
-28.8564
-26.3253
-21.9046
-18.6653
-16.1108
-13.3166
-11.551
-10.1631
-8.44727
-7.32166
-6.29294
-4.93005
-4.31664
-4.24732
-4.16279
-3.79418
-3.60828
-3.45627
-3.15672
-3.03145
-2.96183
-2.81344
-2.81014
-2.86074
-2.77623
-2.48921
-2.30681
-2.166
-1.96692
-1.86022
-1.77535
-1.63532
-1.55178
-1.46983
-1.34115
-1.2942
-1.30741
-1.31824
-1.29657
-1.29166
-1.28888
-1.2698
-1.26663
-1.26906
-1.26439
-1.27119
-1.28369
-1.28933
-1.28369
-1.28385
-1.28873
-1.29402
-1.30126
-1.30988
-1.31798
-1.32438
-1.32826
-1.33028
-28.4725
-28.6667
-29.0525
-29.61
-30.2529
-30.7045
-30.2432
-27.5143
-21.9221
-18.5247
-16.0544
-12.8209
-11.1796
-9.96892
-7.99406
-6.98376
-6.04381
-4.35517
-3.8018
-3.95945
-4.00956
-3.54635
-3.41818
-3.33136
-2.95666
-2.8749
-2.85803
-2.66734
-2.71326
-2.84606
-2.78856
-2.41083
-2.23628
-2.12034
-1.8811
-1.79566
-1.7357
-1.56816
-1.50023
-1.43023
-1.26449
-1.22497
-1.26484
-1.29219
-1.26197
-1.26394
-1.2687
-1.24278
-1.24402
-1.25196
-1.24426
-1.2549
-1.27361
-1.28199
-1.27208
-1.27271
-1.27965
-1.28555
-1.29412
-1.30431
-1.31394
-1.32118
-1.32552
-1.32769
-28.7405
-28.9699
-29.4357
-30.1399
-31.0321
-31.8671
-31.8303
-28.9797
-21.6882
-18.2836
-16.0871
-12.1644
-10.7746
-9.87027
-7.45026
-6.65242
-5.89087
-3.67528
-3.22766
-3.69632
-3.92171
-3.27109
-3.23164
-3.24478
-2.73183
-2.71773
-2.77857
-2.50053
-2.61066
-2.8539
-2.83704
-2.31268
-2.16211
-2.09074
-1.78143
-1.73099
-1.71005
-1.49256
-1.45117
-1.40329
-1.17671
-1.14965
-1.22553
-1.27386
-1.22519
-1.23711
-1.25291
-1.21383
-1.22163
-1.23739
-1.2229
-1.23838
-1.26514
-1.27705
-1.25977
-1.26132
-1.27109
-1.27711
-1.28712
-1.299
-1.31038
-1.31841
-1.32318
-1.32544
-28.9726
-29.2348
-29.7771
-30.6269
-31.7836
-33.0713
-33.6446
-30.8464
-21.0581
-17.9259
-16.2981
-11.2714
-10.3362
-9.9341
-6.76054
-6.33165
-5.89641
-2.83986
-2.58219
-3.47008
-3.92937
-2.94403
-3.04772
-3.21696
-2.46465
-2.55951
-2.73796
-2.30039
-2.49858
-2.88873
-2.93656
-2.17978
-2.08284
-2.08727
-1.65904
-1.66603
-1.70606
-1.40186
-1.40493
-1.3962
-1.07186
-1.06679
-1.19081
-1.26649
-1.1837
-1.21105
-1.24354
-1.18123
-1.19938
-1.22661
-1.19934
-1.22141
-1.25859
-1.2754
-1.24602
-1.24955
-1.2633
-1.2686
-1.28025
-1.29395
-1.30734
-1.31609
-1.32121
-1.32353
-29.1693
-29.4611
-30.074
-31.0631
-32.49
-34.2925
-35.7046
-33.3011
-19.8188
-17.4388
-16.8243
-10.0256
-9.86536
-10.26
-5.8384
-6.02541
-6.15228
-1.77286
-1.85458
-3.29475
-4.07501
-2.52717
-2.86552
-3.27848
-2.12812
-2.40014
-2.758
-2.04813
-2.37297
-2.95499
-3.10883
-1.98959
-1.99729
-2.1253
-1.50035
-1.60073
-1.73516
-1.28575
-1.36183
-1.41961
-0.94101
-0.975129
-1.16224
-1.27462
-1.13349
-1.18564
-1.24366
-1.14237
-1.17722
-1.22151
-1.17207
-1.20373
-1.25429
-1.27824
-1.22974
-1.23731
-1.25667
-1.25984
-1.27349
-1.28915
-1.30489
-1.31421
-1.3196
-1.32193
-29.3315
-29.6493
-30.3247
-31.4419
-33.1329
-35.4957
-38.0115
-36.6191
-17.6619
-16.8173
-17.868
-8.253
-9.36604
-10.9929
-4.5533
-5.73777
-6.79118
-0.361755
-1.03894
-3.18499
-4.4182
-1.96358
-2.6847
-3.4741
-1.68182
-2.24014
-2.87055
-1.7163
-2.23023
-3.05607
-3.38509
-1.70913
-1.90486
-2.22753
-1.28512
-1.53527
-1.81409
-1.12875
-1.32223
-1.48893
-0.770978
-0.873983
-1.14147
-1.3046
-1.06859
-1.16082
-1.25772
-1.09329
-1.15521
-1.22485
-1.1389
-1.18517
-1.25253
-1.28731
-1.20927
-1.22456
-1.25176
-1.25055
-1.26687
-1.28455
-1.30313
-1.31278
-1.31832
-1.32064
-29.461
-29.8003
-30.5288
-31.7579
-33.6938
-36.6352
-40.5341
-41.1991
-14.149
-16.0696
-19.7192
-5.6988
-8.84683
-12.3394
-2.71411
-5.47316
-8.00116
1.55691
-0.140163
-3.15346
-5.04187
-1.17049
-2.50623
-3.86786
-1.06688
-2.08126
-3.12104
-1.26538
-2.06856
-3.19286
-3.80993
-1.29112
-1.80619
-2.42654
-0.983827
-1.47034
-1.96675
-0.90828
-1.28652
-1.62605
-0.542634
-0.763963
-1.13002
-1.36527
-0.980273
-1.13671
-1.29211
-1.02826
-1.13354
-1.24052
-1.09662
-1.16574
-1.2535
-1.30505
-1.18225
-1.21144
-1.24937
-1.24029
-1.26046
-1.28012
-1.30217
-1.3118
-1.31737
-1.31964
-29.5598
-29.9161
-30.6869
-32.008
-34.1563
-37.6555
-43.1876
-47.6094
-8.6675
-15.226
-22.7832
-1.99873
-8.3244
-14.5876
-0.0484334
-5.23704
-10.0434
4.21625
0.817273
-3.20627
-6.06039
-0.0308287
-2.33354
-4.54928
-0.199434
-1.92735
-3.57263
-0.639414
-1.89017
-3.36125
-4.44601
-0.669197
-1.70399
-2.76793
-0.554435
-1.40748
-2.22665
-0.592265
-1.25522
-1.86143
-0.228709
-0.647995
-1.12873
-1.46877
-0.856208
-1.11375
-1.35575
-0.939065
-1.11272
-1.27392
-1.04062
-1.14581
-1.25715
-1.33484
-1.14533
-1.19829
-1.25058
-1.2284
-1.25441
-1.2758
-1.3022
-1.31127
-1.31674
-1.31892
-29.6301
-29.9988
-30.8009
-32.1914
-34.5076
-38.4954
-45.8049
-56.6454
-0.376561
-14.3501
-27.6117
3.35599
-7.8282
-18.1314
3.8223
-5.03684
-13.274
7.94261
1.77668
-3.33604
-7.62989
1.61716
-2.17406
-5.64087
1.03724
-1.78554
-4.31127
0.239529
-1.70441
-3.54875
-5.38013
0.247893
-1.60413
-3.314
0.0616085
-1.34959
-2.6396
-0.136194
-1.22913
-2.23658
0.208952
-0.532785
-1.13708
-1.63164
-0.679336
-1.09286
-1.46081
-0.814283
-1.0937
-1.33237
-0.964466
-1.12639
-1.26302
-1.38134
-1.09387
-1.18585
-1.25683
-1.21392
-1.24902
-1.27149
-1.30348
-1.31117
-1.31644
-1.31851
-29.6745
-30.0511
-30.8735
-32.3097
-34.7405
-39.095
-48.0977
-69.3998
11.8578
-13.5533
-34.9399
11.0601
-7.40673
-23.4974
9.41221
-4.88347
-18.1689
13.1844
2.63215
-3.51168
-9.96104
3.99214
-2.0412
-7.30664
2.8021
-1.66794
-5.45143
1.4781
-1.53231
-3.72962
-6.73074
1.58334
-1.51715
-4.14795
0.944055
-1.30161
-3.26708
0.520298
-1.20947
-2.80706
0.822765
-0.430801
-1.15202
-1.87619
-0.426583
-1.07573
-1.62358
-0.638314
-1.07809
-1.42558
-0.859309
-1.10946
-1.26996
-1.45084
-1.02157
-1.17539
-1.26998
-1.19552
-1.24481
-1.26702
-1.30636
-1.31149
-1.31651
-1.31845
-29.6956
-30.0761
-30.9082
-32.3666
-34.8547
-39.4069
-49.6086
-87.3467
29.5388
-13.0137
-45.7265
22.0419
-7.13574
-31.3767
17.4043
-4.79338
-25.3531
20.5464
3.20629
-3.66442
-13.3345
7.38384
-1.95688
-9.76176
5.30713
-1.59371
-7.14256
3.21979
-1.41254
-3.85849
-8.6568
3.50039
-1.46002
-5.37854
2.19928
-1.27134
-4.18977
1.45738
-1.1981
-3.64578
1.68347
-0.362773
-1.16639
-2.23201
-0.0672831
-1.06503
-1.86527
-0.390227
-1.06837
-1.56604
-0.713079
-1.09831
-1.27558
-1.55161
-0.919849
-1.16877
-1.29212
-1.17112
-1.24236
-1.26195
-1.3111
-1.31197
-1.31681
-1.31855
)
;

boundaryField
{
    left
    {
        type            calculated;
        value           nonuniform List<scalar> 
32
(
-20.1545
-20.2329
-20.3818
-20.5929
-20.8588
-21.1731
-21.5296
-21.9225
-22.3463
-22.7954
-23.2643
-23.7473
-24.2389
-24.7334
-25.2251
-25.7085
-26.1784
-26.6298
-27.0581
-27.4595
-27.8306
-28.1688
-28.4725
-28.7405
-28.9726
-29.1693
-29.3315
-29.461
-29.5598
-29.6301
-29.6745
-29.6956
)
;
    }
    right
    {
        type            calculated;
        value           nonuniform List<scalar> 
32
(
-1.42842
-1.42706
-1.4245
-1.42094
-1.41656
-1.41155
-1.40605
-1.40021
-1.39416
-1.38801
-1.38186
-1.37579
-1.36988
-1.36418
-1.35875
-1.35361
-1.34881
-1.34436
-1.34028
-1.33657
-1.33324
-1.33028
-1.32769
-1.32544
-1.32353
-1.32193
-1.32064
-1.31964
-1.31892
-1.31851
-1.31845
-1.31855
)
;
    }
    interface
    {
        type            calculated;
        value           nonuniform List<scalar> 
64
(
-29.7006
-30.082
-30.9165
-32.3803
-34.8824
-39.4863
-50.099
-97.8292
39.9544
-12.8353
-52.1194
28.4843
-7.04932
-36.0423
22.098
-4.76662
-29.6059
24.844
3.39561
-3.7236
-15.3218
9.37499
-1.93022
-11.2171
6.77486
-1.57035
-8.14693
4.23693
-1.37189
-3.9028
-9.78641
4.62751
-1.44151
-6.10833
2.93523
-1.26182
-4.73632
2.00745
-1.19477
-4.14251
2.18566
-0.340442
-1.17222
-2.44194
0.143366
-1.06169
-2.00884
-0.245161
-1.06534
-1.64983
-0.627954
-1.09467
-1.27767
-1.61097
-0.860397
-1.16669
-1.30571
-1.1571
-1.24164
-1.25916
-1.31395
-1.31219
-1.31698
-1.31859
)
;
    }
    bottom
    {
        type            calculated;
        value           nonuniform List<scalar> 
64
(
-20.1341
-20.0374
-19.8452
-19.5597
-19.1844
-18.7245
-18.1867
-17.5795
-16.9127
-16.1975
-15.4458
-14.6697
-13.881
-13.091
-12.3095
-11.5453
-10.8057
-10.0962
-9.42098
-8.78288
-8.1834
-7.62298
-7.10123
-6.61705
-6.16885
-5.75472
-5.37252
-5.02003
-4.69505
-4.39542
-4.11913
-3.86434
-3.62939
-3.41279
-3.21324
-3.02958
-2.8608
-2.70598
-2.56428
-2.43492
-2.31714
-2.21023
-2.1135
-2.02624
-1.94778
-1.87746
-1.81463
-1.75869
-1.70904
-1.66513
-1.62645
-1.59251
-1.56287
-1.53712
-1.51488
-1.49583
-1.47966
-1.46611
-1.45493
-1.44593
-1.43893
-1.4338
-1.43044
-1.42878
)
;
    }
    defaultFaces
    {
        type            empty;
    }
}


// ************************************************************************* //
