/*--------------------------------*- C++ -*----------------------------------*\
| =========                 |                                                 |
| \\      /  F ield         | OpenFOAM: The Open Source CFD Toolbox           |
|  \\    /   O peration     | Version:  5.x                                   |
|   \\  /    A nd           | Web:      www.OpenFOAM.org                      |
|    \\/     M anipulation  |                                                 |
\*---------------------------------------------------------------------------*/
FoamFile
{
    version     2.0;
    format      ascii;
    class       volScalarField;
    location    "1.7";
    object      gradTy;
}
// * * * * * * * * * * * * * * * * * * * * * * * * * * * * * * * * * * * * * //

dimensions      [0 -1 0 1 0 0 0];

internalField   nonuniform List<scalar> 
2048
(
-22.7824
-22.7121
-22.5725
-22.3655
-22.0944
-21.7634
-21.3785
-20.9467
-20.4763
-19.9764
-19.4565
-18.9262
-18.3945
-17.8697
-17.359
-16.8682
-16.402
-15.9636
-15.5551
-15.1775
-14.8311
-14.5153
-14.2288
-13.9703
-13.7378
-13.5296
-13.3435
-13.1775
-13.0299
-12.8986
-12.7821
-12.6788
-12.5872
-12.5062
-12.4344
-12.371
-12.315
-12.2655
-12.222
-12.1837
-12.15
-12.1205
-12.0946
-12.0719
-12.0521
-12.0347
-12.0195
-12.0062
-11.9946
-11.9844
-11.9755
-11.9676
-11.9607
-11.9546
-11.9492
-11.9444
-11.9403
-11.9367
-11.9336
-11.9311
-11.929
-11.9275
-11.9264
-11.9259
-22.8388
-22.7677
-22.6265
-22.417
-22.1422
-21.8066
-21.4159
-20.9774
-20.4996
-19.9919
-19.4642
-18.9265
-18.3882
-17.8576
-17.342
-16.8475
-16.3785
-15.9383
-15.5289
-15.1513
-14.8053
-14.4903
-14.2051
-13.9479
-13.717
-13.5103
-13.3258
-13.1614
-13.0152
-12.8853
-12.7701
-12.6679
-12.5773
-12.4972
-12.4262
-12.3635
-12.3081
-12.2593
-12.2163
-12.1784
-12.1452
-12.116
-12.0905
-12.0681
-12.0485
-12.0314
-12.0165
-12.0034
-11.9919
-11.9819
-11.9731
-11.9653
-11.9585
-11.9524
-11.9471
-11.9424
-11.9383
-11.9347
-11.9316
-11.9291
-11.927
-11.9255
-11.9245
-11.924
-22.9461
-22.8736
-22.7294
-22.5151
-22.2336
-21.889
-21.4873
-21.0359
-20.5438
-20.0212
-19.4786
-18.9267
-18.3755
-17.8337
-17.309
-16.8074
-16.3334
-15.89
-15.479
-15.1011
-14.756
-14.4428
-14.1599
-13.9056
-13.6776
-13.474
-13.2925
-13.131
-12.9876
-12.8603
-12.7474
-12.6473
-12.5587
-12.4802
-12.4108
-12.3495
-12.2953
-12.2476
-12.2055
-12.1685
-12.1361
-12.1076
-12.0827
-12.0609
-12.0418
-12.0252
-12.0107
-11.998
-11.9868
-11.9771
-11.9685
-11.9609
-11.9543
-11.9484
-11.9432
-11.9386
-11.9345
-11.931
-11.9279
-11.9254
-11.9233
-11.9218
-11.9207
-11.9202
-23.0985
-23.0241
-22.8758
-22.655
-22.3641
-22.007
-21.5895
-21.1195
-20.6068
-20.0624
-19.4982
-18.9258
-18.3561
-17.7985
-17.2608
-16.7493
-16.2682
-15.8205
-15.4075
-15.0295
-14.6859
-14.3754
-14.096
-13.8457
-13.622
-13.4228
-13.2456
-13.0883
-12.9488
-12.8251
-12.7156
-12.6185
-12.5326
-12.4565
-12.3893
-12.3298
-12.2773
-12.2311
-12.1904
-12.1546
-12.1233
-12.0958
-12.0718
-12.0508
-12.0325
-12.0165
-12.0026
-11.9904
-11.9797
-11.9703
-11.9621
-11.9549
-11.9484
-11.9427
-11.9377
-11.9332
-11.9292
-11.9257
-11.9227
-11.9202
-11.9181
-11.9165
-11.9155
-11.915
-23.291
-23.2144
-23.0614
-22.8329
-22.5304
-22.1575
-21.72
-21.2261
-20.6865
-20.1139
-19.5217
-18.9228
-18.3293
-17.7515
-17.1976
-16.6737
-16.1841
-15.7312
-15.3161
-14.9384
-14.5971
-14.2903
-14.0156
-13.7705
-13.5524
-13.3588
-13.1872
-13.0351
-12.9006
-12.7815
-12.6761
-12.5828
-12.5002
-12.4272
-12.3625
-12.3054
-12.2551
-12.2107
-12.1717
-12.1374
-12.1074
-12.0812
-12.0583
-12.0383
-12.0209
-12.0057
-11.9925
-11.9809
-11.9708
-11.962
-11.9542
-11.9473
-11.9412
-11.9357
-11.9309
-11.9265
-11.9226
-11.9192
-11.9162
-11.9137
-11.9116
-11.91
-11.9089
-11.9084
-23.5191
-23.4402
-23.2824
-23.0453
-22.7298
-22.3385
-21.8769
-21.3539
-20.7815
-20.1741
-19.5474
-18.9162
-18.2941
-17.6922
-17.1191
-16.5809
-16.0817
-15.6233
-15.2062
-14.8296
-14.4915
-14.1895
-13.9207
-13.6821
-13.4708
-13.284
-13.1189
-12.9732
-12.8445
-12.7309
-12.6304
-12.5415
-12.4628
-12.3931
-12.3316
-12.2772
-12.2292
-12.187
-12.1499
-12.1174
-12.0889
-12.0641
-12.0425
-12.0237
-12.0074
-11.9931
-11.9808
-11.97
-11.9605
-11.9522
-11.9449
-11.9385
-11.9327
-11.9276
-11.9229
-11.9187
-11.9149
-11.9116
-11.9086
-11.906
-11.9039
-11.9023
-11.9012
-11.9007
-23.7786
-23.6978
-23.5353
-23.2896
-22.9602
-22.5484
-22.0592
-21.5019
-20.8903
-20.2416
-19.5739
-18.9048
-18.2493
-17.6198
-17.025
-16.4711
-15.9615
-15.4976
-15.0791
-14.7043
-14.3706
-14.0747
-13.8131
-13.5823
-13.379
-13.2
-13.0426
-12.9041
-12.7821
-12.6746
-12.5796
-12.4956
-12.4212
-12.3554
-12.2972
-12.2458
-12.2005
-12.1606
-12.1257
-12.0951
-12.0684
-12.0452
-12.025
-12.0075
-11.9923
-11.9791
-11.9677
-11.9577
-11.949
-11.9414
-11.9347
-11.9287
-11.9233
-11.9185
-11.9141
-11.91
-11.9064
-11.903
-11.9001
-11.8975
-11.8953
-11.8937
-11.8925
-11.892
-24.0656
-23.9834
-23.817
-23.5635
-23.2201
-22.7863
-22.266
-21.6693
-21.0121
-20.3149
-19.5996
-18.8868
-18.1936
-17.5332
-16.9149
-16.3442
-15.824
-15.3549
-14.9358
-14.564
-14.236
-13.9476
-13.6946
-13.4728
-13.2786
-13.1085
-12.9596
-12.8291
-12.7146
-12.6138
-12.5248
-12.4461
-12.3765
-12.3147
-12.2601
-12.2119
-12.1695
-12.1321
-12.0995
-12.071
-12.0461
-12.0246
-12.006
-11.9899
-11.976
-11.964
-11.9536
-11.9445
-11.9366
-11.9297
-11.9235
-11.9181
-11.9131
-11.9086
-11.9045
-11.9006
-11.8971
-11.8938
-11.8908
-11.8882
-11.886
-11.8842
-11.883
-11.8824
-24.3763
-24.2935
-24.1248
-23.865
-23.5083
-23.0517
-22.4973
-21.8557
-21.1458
-20.3927
-19.6228
-18.8605
-18.1253
-17.4315
-16.788
-16.1999
-15.6693
-15.1958
-14.7772
-14.4099
-14.0892
-13.8098
-13.5667
-13.3552
-13.1712
-13.011
-12.8714
-12.7497
-12.6432
-12.5496
-12.4671
-12.3941
-12.3293
-12.2719
-12.2211
-12.1762
-12.1367
-12.102
-12.0718
-12.0454
-12.0226
-12.0029
-11.9859
-11.9713
-11.9588
-11.948
-11.9386
-11.9305
-11.9235
-11.9173
-11.9118
-11.9068
-11.9023
-11.8982
-11.8943
-11.8906
-11.8872
-11.8839
-11.8809
-11.8782
-11.8759
-11.8741
-11.8728
-11.8722
-24.7068
-24.6247
-24.4558
-24.1921
-23.8241
-23.3447
-22.7535
-22.0613
-21.291
-20.4735
-19.6416
-18.8241
-18.0431
-17.3135
-16.6438
-16.0384
-15.4978
-15.0209
-14.6042
-14.2431
-13.9314
-13.6627
-13.431
-13.231
-13.0581
-12.9086
-12.7792
-12.6668
-12.5689
-12.4831
-12.4074
-12.3402
-12.2806
-12.2275
-12.1806
-12.1391
-12.1026
-12.0707
-12.0429
-12.0188
-11.998
-11.9802
-11.9649
-11.9519
-11.9408
-11.9313
-11.9231
-11.916
-11.9098
-11.9043
-11.8995
-11.8951
-11.8911
-11.8873
-11.8837
-11.8803
-11.8769
-11.8737
-11.8706
-11.8678
-11.8654
-11.8634
-11.8621
-11.8614
-25.0531
-24.9733
-24.8073
-24.5434
-24.1671
-23.6659
-23.0355
-22.2866
-21.4469
-20.5559
-19.6541
-18.7756
-17.9452
-17.1781
-16.4819
-15.8594
-15.31
-14.8308
-14.4178
-14.0648
-13.7641
-13.5078
-13.2889
-13.1015
-12.9408
-12.8028
-12.684
-12.5816
-12.4928
-12.4151
-12.3465
-12.2853
-12.2308
-12.1822
-12.1391
-12.1011
-12.0677
-12.0386
-12.0133
-11.9915
-11.9728
-11.9568
-11.9434
-11.932
-11.9223
-11.9141
-11.9071
-11.901
-11.8957
-11.891
-11.8869
-11.8831
-11.8795
-11.8762
-11.8728
-11.8696
-11.8663
-11.8631
-11.8599
-11.857
-11.8544
-11.8523
-11.8508
-11.8501
-25.4111
-25.3357
-25.1764
-24.9172
-24.5372
-24.0165
-23.345
-22.5325
-21.6132
-20.6382
-19.658
-18.7127
-17.8299
-17.0243
-16.3019
-15.6633
-15.1061
-14.6263
-14.2189
-13.8762
-13.5886
-13.3466
-13.1419
-12.9682
-12.8204
-12.6944
-12.5869
-12.4949
-12.4156
-12.3464
-12.285
-12.23
-12.1806
-12.1364
-12.0971
-12.0625
-12.0323
-12.0059
-11.9832
-11.9636
-11.947
-11.9331
-11.9214
-11.9117
-11.9036
-11.8967
-11.8908
-11.8858
-11.8814
-11.8775
-11.874
-11.8709
-11.8678
-11.8648
-11.8618
-11.8587
-11.8555
-11.8523
-11.849
-11.8459
-11.8431
-11.8408
-11.8392
-11.8384
-25.7767
-25.7082
-25.5602
-25.3118
-24.9344
-24.3982
-23.6843
-22.8003
-21.7892
-20.7183
-19.6507
-18.6331
-17.6955
-16.8514
-16.1035
-15.4502
-14.8869
-14.4081
-14.0082
-13.6783
-13.4063
-13.1803
-12.9913
-12.8322
-12.6979
-12.5846
-12.4888
-12.4076
-12.3382
-12.2777
-12.2238
-12.1748
-12.1304
-12.0905
-12.055
-12.0238
-11.9966
-11.9731
-11.9528
-11.9355
-11.921
-11.909
-11.8992
-11.8912
-11.8846
-11.8791
-11.8744
-11.8704
-11.8669
-11.8639
-11.8611
-11.8585
-11.856
-11.8534
-11.8507
-11.8478
-11.8447
-11.8414
-11.838
-11.8346
-11.8316
-11.8291
-11.8273
-11.8264
-26.1458
-26.0868
-25.9555
-25.7255
-25.3589
-24.8132
-24.0567
-23.0921
-21.9743
-20.7938
-19.6296
-18.5342
-17.5403
-16.6586
-15.8868
-15.2207
-14.653
-14.1766
-13.7865
-13.4723
-13.2185
-13.0104
-12.8383
-12.6947
-12.5745
-12.4741
-12.3904
-12.3203
-12.2611
-12.2098
-12.1634
-12.1203
-12.0807
-12.0449
-12.013
-11.9851
-11.961
-11.9402
-11.9224
-11.9074
-11.895
-11.8849
-11.877
-11.8708
-11.8657
-11.8616
-11.8581
-11.8551
-11.8525
-11.8503
-11.8482
-11.8462
-11.8442
-11.8421
-11.8396
-11.8369
-11.8338
-11.8305
-11.8269
-11.8233
-11.8199
-11.8171
-11.8152
-11.8142
-26.5139
-26.4676
-26.3591
-26.1564
-25.811
-25.2642
-24.4662
-23.4106
-22.1673
-20.8617
-19.5914
-18.4133
-17.3628
-16.4455
-15.6521
-14.9756
-14.4054
-13.9327
-13.5546
-13.2594
-13.0266
-12.8383
-12.6842
-12.5568
-12.4509
-12.3637
-12.2923
-12.2335
-12.1849
-12.1431
-12.1042
-12.0668
-12.0317
-11.9998
-11.9714
-11.9467
-11.9256
-11.9075
-11.8922
-11.8794
-11.8689
-11.8609
-11.8549
-11.8504
-11.847
-11.8442
-11.8418
-11.8399
-11.8382
-11.8367
-11.8354
-11.834
-11.8326
-11.8308
-11.8286
-11.826
-11.823
-11.8196
-11.8158
-11.8119
-11.8081
-11.805
-11.8029
-11.8018
-26.877
-26.8464
-26.7673
-26.6021
-26.2908
-25.7548
-24.9184
-23.7593
-22.3665
-20.9183
-19.5331
-18.2674
-17.1615
-16.2123
-15.3996
-14.7158
-14.1453
-13.6769
-13.3129
-13.0406
-12.8323
-12.6652
-12.5301
-12.4195
-12.3278
-12.254
-12.1951
-12.1478
-12.1101
-12.0782
-12.0469
-12.0147
-11.9837
-11.9554
-11.9302
-11.9087
-11.8906
-11.8752
-11.8623
-11.8516
-11.8431
-11.8369
-11.833
-11.8303
-11.8284
-11.827
-11.8258
-11.8248
-11.824
-11.8233
-11.8226
-11.8219
-11.821
-11.8197
-11.8178
-11.8154
-11.8124
-11.8089
-11.8049
-11.8005
-11.7963
-11.7927
-11.7904
-11.7892
-27.2309
-27.2191
-27.1762
-27.06
-26.7981
-26.2885
-25.4202
-24.143
-22.5689
-20.9589
-19.4515
-18.0933
-16.9349
-15.9597
-15.1302
-14.4425
-13.8743
-13.4093
-13.0617
-12.8172
-12.6372
-12.4925
-12.3771
-12.2837
-12.206
-12.1455
-12.0993
-12.0633
-12.037
-12.0155
-11.992
-11.9642
-11.9369
-11.912
-11.8897
-11.8713
-11.8562
-11.8433
-11.8328
-11.8242
-11.8174
-11.8132
-11.8113
-11.8106
-11.8102
-11.8101
-11.81
-11.81
-11.81
-11.8101
-11.8101
-11.81
-11.8097
-11.8088
-11.8071
-11.8049
-11.802
-11.7984
-11.7941
-11.7893
-11.7844
-11.7803
-11.7778
-11.7765
-27.5716
-27.5817
-27.5819
-27.5265
-27.3322
-26.8696
-25.9806
-24.5683
-22.7697
-20.9774
-19.3439
-17.8873
-16.6819
-15.689
-14.8443
-14.1574
-13.5944
-13.13
-12.8009
-12.5906
-12.4433
-12.3211
-12.226
-12.1503
-12.0857
-12.0386
-12.0053
-11.9803
-11.9657
-11.9557
-11.9399
-11.9155
-11.8912
-11.8695
-11.8498
-11.8345
-11.8225
-11.812
-11.8038
-11.7973
-11.792
-11.7896
-11.7899
-11.7912
-11.7924
-11.7935
-11.7946
-11.7954
-11.7962
-11.7971
-11.7977
-11.7983
-11.7986
-11.7981
-11.7967
-11.7946
-11.7918
-11.788
-11.7835
-11.7781
-11.7725
-11.7679
-11.7651
-11.7637
-27.8958
-27.9303
-27.98
-27.9978
-27.8913
-27.5022
-26.6106
-25.0444
-22.9606
-20.9666
-19.209
-17.645
-16.4015
-15.4031
-14.5422
-13.8621
-13.3085
-12.8382
-12.5297
-12.3621
-12.2529
-12.1521
-12.0778
-12.0205
-11.9672
-11.9335
-11.9137
-11.8986
-11.8964
-11.8992
-11.8912
-11.8686
-11.8468
-11.8282
-11.8105
-11.7984
-11.7896
-11.7812
-11.7754
-11.771
-11.7668
-11.7663
-11.769
-11.7724
-11.7749
-11.7774
-11.7795
-11.7811
-11.7827
-11.7843
-11.7856
-11.7869
-11.7878
-11.7877
-11.7865
-11.7845
-11.7818
-11.778
-11.7732
-11.7672
-11.7605
-11.7553
-11.7523
-11.7508
-28.2001
-28.2612
-28.366
-28.4691
-28.4728
-28.1899
-27.324
-25.5847
-23.1287
-20.9173
-19.0478
-17.3604
-16.0927
-15.1068
-14.2233
-13.5585
-13.0211
-12.5323
-12.2469
-12.1337
-12.0692
-11.9858
-11.9329
-11.8954
-11.8503
-11.8304
-11.8249
-11.8181
-11.829
-11.8466
-11.8468
-11.8232
-11.8034
-11.7883
-11.7717
-11.7629
-11.7578
-11.7511
-11.7478
-11.7454
-11.7418
-11.743
-11.7486
-11.7542
-11.7579
-11.7616
-11.7648
-11.767
-11.7694
-11.7718
-11.7736
-11.7756
-11.7773
-11.7777
-11.7764
-11.7747
-11.7721
-11.7682
-11.7632
-11.7564
-11.7485
-11.7425
-11.7394
-11.738
-28.4819
-28.5711
-28.7354
-28.9349
-29.0721
-28.9355
-28.1376
-26.209
-23.253
-20.8187
-18.8659
-17.025
-15.7547
-14.8075
-13.8852
-13.2487
-12.7385
-12.2089
-11.9503
-11.9076
-11.8959
-11.8219
-11.7917
-11.7766
-11.7345
-11.7293
-11.7398
-11.7382
-11.7633
-11.7986
-11.8075
-11.779
-11.7609
-11.7499
-11.7331
-11.7281
-11.7274
-11.7214
-11.7209
-11.7208
-11.7168
-11.7199
-11.7286
-11.7368
-11.7414
-11.7463
-11.7507
-11.7533
-11.7565
-11.7596
-11.7618
-11.7645
-11.7671
-11.768
-11.7666
-11.7651
-11.7628
-11.7586
-11.7535
-11.7461
-11.7364
-11.7296
-11.7264
-11.7253
-28.7392
-28.8571
-29.084
-29.3891
-29.6833
-29.7398
-29.0713
-26.947
-23.3008
-20.6582
-18.676
-16.6257
-15.3868
-14.5174
-13.5224
-12.9348
-12.4705
-11.8621
-11.6367
-11.6868
-11.7383
-11.659
-11.6543
-11.6663
-11.6184
-11.6303
-11.6599
-11.6579
-11.6987
-11.7561
-11.7749
-11.735
-11.7191
-11.7138
-11.6943
-11.694
-11.6986
-11.692
-11.6947
-11.6976
-11.6916
-11.6967
-11.7094
-11.7204
-11.7252
-11.7314
-11.7371
-11.7397
-11.7438
-11.7478
-11.7501
-11.7537
-11.7573
-11.7587
-11.757
-11.7557
-11.7538
-11.7493
-11.7443
-11.7362
-11.7241
-11.7164
-11.7135
-11.7126
-28.9704
-29.1169
-29.4076
-29.825
-30.2979
-30.6005
-30.1473
-27.8436
-23.2211
-20.4217
-18.5022
-16.1418
-14.9883
-14.2552
-13.1241
-12.6188
-12.2318
-11.4823
-11.3019
-11.4752
-11.6038
-11.4936
-11.5206
-11.5681
-11.4997
-11.5331
-11.5871
-11.5755
-11.6346
-11.7201
-11.7507
-11.6897
-11.6775
-11.6807
-11.6545
-11.6604
-11.6723
-11.6625
-11.6695
-11.6762
-11.666
-11.6733
-11.6909
-11.7051
-11.7093
-11.717
-11.7242
-11.7263
-11.7314
-11.7365
-11.7386
-11.743
-11.748
-11.75
-11.7474
-11.7467
-11.7453
-11.7402
-11.7356
-11.727
-11.7115
-11.703
-11.7005
-11.7002
-29.1745
-29.3487
-29.7024
-30.2356
-30.9056
-31.5111
-31.3894
-28.9668
-22.9365
-20.0943
-18.3857
-15.5407
-14.5585
-14.0495
-12.6715
-12.3028
-12.0446
-11.0536
-10.9408
-11.2777
-11.5022
-11.3196
-11.3902
-11.4873
-11.3744
-11.4375
-11.5248
-11.4883
-11.5701
-11.6917
-11.738
-11.6406
-11.6358
-11.6523
-11.6126
-11.6275
-11.6495
-11.6322
-11.6452
-11.6574
-11.6392
-11.6495
-11.6735
-11.6915
-11.6936
-11.703
-11.7122
-11.713
-11.7193
-11.7258
-11.7271
-11.7326
-11.7392
-11.742
-11.7378
-11.7378
-11.7374
-11.7313
-11.7276
-11.7188
-11.6983
-11.6894
-11.6877
-11.6881
-29.3514
-29.5515
-29.9655
-30.614
-31.4938
-32.459
-32.8195
-30.4189
-22.3309
-19.6618
-18.3923
-14.7706
-14.0976
-13.9433
-12.1328
-11.9888
-11.9419
-10.5514
-10.548
-11.1005
-11.4476
-11.1267
-11.2625
-11.4317
-11.236
-11.3435
-11.478
-11.3925
-11.5041
-11.6724
-11.7407
-11.5838
-11.5934
-11.6308
-11.5667
-11.5951
-11.6315
-11.5998
-11.622
-11.6425
-11.6105
-11.6251
-11.6572
-11.68
-11.6775
-11.6896
-11.7016
-11.6995
-11.7076
-11.7159
-11.7155
-11.7224
-11.7311
-11.735
-11.7281
-11.7293
-11.7302
-11.7223
-11.7203
-11.712
-11.6844
-11.6755
-11.6752
-11.6764
-29.5012
-29.7248
-30.1946
-30.9536
-32.0485
-33.4243
-34.4534
-32.3525
-21.2333
-19.1134
-18.623
-13.7515
-13.6066
-13.9998
-11.4582
-11.6789
-11.9721
-9.93821
-10.1187
-10.9504
-11.4591
-10.8984
-11.1371
-11.4134
-11.0744
-11.2508
-11.4541
-11.2819
-11.4355
-11.6634
-11.7647
-11.5135
-11.5502
-11.6199
-11.5138
-11.5632
-11.6208
-11.5636
-11.5997
-11.6332
-11.5784
-11.6001
-11.6425
-11.6714
-11.6607
-11.6766
-11.6925
-11.6856
-11.6963
-11.7072
-11.7036
-11.7123
-11.7237
-11.7291
-11.7179
-11.721
-11.7241
-11.7131
-11.7138
-11.7073
-11.6692
-11.6612
-11.6629
-11.6652
-29.6247
-29.8688
-30.3881
-31.2489
-32.5545
-34.3788
-36.2924
-34.9916
-19.3958
-18.4451
-19.2264
-12.363
-13.0894
-14.3104
-10.5711
-11.3761
-12.2043
-9.15772
-9.65062
-10.8352
-11.5638
-10.61
-11.0137
-11.4496
-10.8748
-11.1597
-11.464
-11.1474
-11.3631
-11.6658
-11.8184
-11.4209
-11.5058
-11.6246
-11.4494
-11.5318
-11.6204
-11.5207
-11.5785
-11.6318
-11.5409
-11.5741
-11.6294
-11.6664
-11.6421
-11.6641
-11.6858
-11.6705
-11.6853
-11.7
-11.691
-11.7023
-11.7169
-11.7248
-11.7068
-11.7129
-11.7194
-11.703
-11.7081
-11.7053
-11.6518
-11.6465
-11.651
-11.6544
-29.7231
-29.9843
-30.5456
-31.4956
-32.9969
-35.2853
-38.3113
-38.6605
-16.4659
-17.6658
-20.4147
-10.4273
-12.5545
-15.0043
-9.35889
-11.0843
-12.7365
-8.12767
-9.14684
-10.7614
-11.7985
-10.2255
-10.8929
-11.565
-10.6148
-11.0707
-11.523
-10.9761
-11.2867
-11.68
-11.9137
-11.2936
-11.4604
-11.6525
-11.3671
-11.5011
-11.6349
-11.4669
-11.5585
-11.6419
-11.4949
-11.5473
-11.6182
-11.6663
-11.6205
-11.6519
-11.6821
-11.6535
-11.6746
-11.6948
-11.6771
-11.6922
-11.7108
-11.7226
-11.694
-11.705
-11.7165
-11.6916
-11.703
-11.7074
-11.6311
-11.6314
-11.6396
-11.6441
-29.7978
-30.0726
-30.6674
-31.6908
-33.3621
-36.0989
-40.4416
-43.8208
-11.9503
-16.8053
-22.4834
-7.68867
-12.0187
-16.2605
-7.65975
-10.8104
-13.7038
-6.73014
-8.62052
-10.7333
-12.2141
-9.6935
-10.7768
-11.794
-10.2631
-10.9857
-11.6524
-10.7492
-11.2073
-11.7053
-12.0673
-11.114
-11.4148
-11.7139
-11.2574
-11.4716
-11.6706
-11.3962
-11.5396
-11.6681
-11.4361
-11.52
-11.609
-11.6729
-11.5939
-11.6401
-11.6827
-11.6334
-11.6642
-11.6924
-11.6612
-11.6821
-11.7053
-11.7233
-11.6787
-11.6972
-11.7161
-11.6777
-11.6985
-11.7151
-11.6056
-11.6161
-11.6287
-11.6344
-29.8507
-30.1354
-30.755
-31.8338
-33.6396
-36.7698
-42.5477
-51.1178
-5.17096
-15.9251
-25.833
-3.78826
-11.5112
-18.3223
-5.24749
-10.5654
-15.2899
-4.79958
-8.10113
-10.7489
-12.8797
-8.94317
-10.6699
-12.1836
-9.77551
-10.9079
-11.8811
-10.4408
-11.1284
-11.7384
-12.302
-10.858
-11.3711
-11.8231
-11.1073
-11.4441
-11.7364
-11.3004
-11.5224
-11.7172
-11.3584
-11.4934
-11.6016
-11.6886
-11.5599
-11.6289
-11.6892
-11.6086
-11.6542
-11.6938
-11.6424
-11.6721
-11.7001
-11.7279
-11.6596
-11.6894
-11.7195
-11.6603
-11.6942
-11.7307
-11.5729
-11.6011
-11.6185
-11.6253
-29.8837
-30.1748
-30.8105
-31.9256
-33.8234
-37.249
-44.3959
-61.4375
4.78783
-15.1326
-30.9947
1.7661
-11.0809
-21.513
-1.81347
-10.3672
-17.7394
-2.10807
-7.64322
-10.7962
-13.8882
-7.87858
-10.5806
-12.7965
-9.09232
-10.8432
-12.2478
-10.0155
-11.0575
-11.7733
-12.6497
-10.4933
-11.333
-11.9992
-10.8994
-11.4206
-11.8439
-11.1685
-11.5077
-11.7982
-11.2539
-11.4696
-11.596
-11.7169
-11.5153
-11.6187
-11.704
-11.5772
-11.645
-11.7009
-11.6194
-11.6627
-11.6952
-11.7382
-11.6353
-11.682
-11.7281
-11.6379
-11.69
-11.7575
-11.5303
-11.5874
-11.6095
-11.6171
-29.8987
-30.1929
-30.8364
-31.9693
-33.913
-37.498
-45.615
-75.9747
19.1419
-14.5991
-38.6574
9.6347
-10.8035
-26.254
3.05446
-10.2435
-21.372
1.65252
-7.33717
-10.8457
-15.3631
-6.37205
-10.5221
-13.7147
-8.1331
-10.8004
-12.8025
-9.4251
-11.0077
-11.7977
-13.1522
-9.97648
-11.3062
-12.2665
-10.6095
-11.4035
-12.0082
-10.9853
-11.4962
-11.9223
-11.1114
-11.4516
-11.5908
-11.7619
-11.4555
-11.6099
-11.73
-11.5362
-11.6368
-11.7152
-11.5903
-11.6542
-11.6899
-11.7561
-11.6037
-11.6749
-11.744
-11.6085
-11.685
-11.7996
-11.4737
-11.5761
-11.6016
-11.6097
)
;

boundaryField
{
    left
    {
        type            calculated;
        value           nonuniform List<scalar> 
32
(
-22.7824
-22.8388
-22.9461
-23.0985
-23.291
-23.5191
-23.7786
-24.0656
-24.3763
-24.7068
-25.0531
-25.4111
-25.7767
-26.1458
-26.5139
-26.877
-27.2309
-27.5716
-27.8958
-28.2001
-28.4819
-28.7392
-28.9704
-29.1745
-29.3514
-29.5012
-29.6247
-29.7231
-29.7978
-29.8507
-29.8837
-29.8987
)
;
    }
    right
    {
        type            calculated;
        value           nonuniform List<scalar> 
32
(
-11.9259
-11.924
-11.9202
-11.915
-11.9084
-11.9007
-11.892
-11.8824
-11.8722
-11.8614
-11.8501
-11.8384
-11.8264
-11.8142
-11.8018
-11.7892
-11.7765
-11.7637
-11.7508
-11.738
-11.7253
-11.7126
-11.7002
-11.6881
-11.6764
-11.6652
-11.6544
-11.6441
-11.6344
-11.6253
-11.6171
-11.6097
)
;
    }
    interface
    {
        type            calculated;
        value           nonuniform List<scalar> 
64
(
-29.902
-30.197
-30.8423
-31.9795
-33.9345
-37.5612
-46.0109
-84.4686
27.5906
-14.4231
-43.2109
14.2418
-10.7145
-29.0714
5.9056
-10.2044
-23.5291
3.84423
-7.23601
-10.8659
-16.2347
-5.49012
-10.5026
-14.2616
-7.573
-10.7859
-13.1338
-9.08173
-10.99
-11.8055
-13.4481
-9.67382
-11.2963
-12.4263
-10.4407
-11.3969
-12.1067
-10.8788
-11.4913
-11.9967
-11.0289
-11.4446
-11.5881
-11.7892
-11.4211
-11.6058
-11.7462
-11.5129
-11.633
-11.7244
-11.5739
-11.6502
-11.687
-11.7673
-11.5857
-11.6714
-11.7539
-11.5917
-11.6822
-11.8249
-11.4412
-11.5711
-11.5979
-11.6062
)
;
    }
    bottom
    {
        type            calculated;
        value           nonuniform List<scalar> 
64
(
-22.7677
-22.6976
-22.5584
-22.3521
-22.0819
-21.7522
-21.3688
-20.9388
-20.4703
-19.9723
-19.4545
-18.9261
-18.3961
-17.8729
-17.3634
-16.8736
-16.4081
-15.9701
-15.5618
-15.1844
-14.8378
-14.5218
-14.235
-13.9761
-13.7433
-13.5346
-13.3481
-13.1817
-13.0337
-12.9021
-12.7853
-12.6817
-12.5898
-12.5085
-12.4366
-12.3729
-12.3167
-12.2672
-12.2235
-12.1851
-12.1513
-12.1216
-12.0957
-12.0729
-12.053
-12.0356
-12.0203
-12.007
-11.9953
-11.9851
-11.9761
-11.9682
-11.9612
-11.9551
-11.9497
-11.945
-11.9408
-11.9372
-11.9341
-11.9316
-11.9295
-11.928
-11.927
-11.9264
)
;
    }
    defaultFaces
    {
        type            empty;
    }
}


// ************************************************************************* //
