/*--------------------------------*- C++ -*----------------------------------*\
| =========                 |                                                 |
| \\      /  F ield         | OpenFOAM: The Open Source CFD Toolbox           |
|  \\    /   O peration     | Version:  5.x                                   |
|   \\  /    A nd           | Web:      www.OpenFOAM.org                      |
|    \\/     M anipulation  |                                                 |
\*---------------------------------------------------------------------------*/
FoamFile
{
    version     2.0;
    format      ascii;
    class       volScalarField;
    location    "1.7";
    object      T;
}
// * * * * * * * * * * * * * * * * * * * * * * * * * * * * * * * * * * * * * //

dimensions      [0 0 0 1 0 0 0];

internalField   nonuniform List<scalar> 
2048
(
9.83643
9.83693
9.83793
9.83942
9.84136
9.84373
9.84648
9.84957
9.85294
9.85651
9.86023
9.86403
9.86784
9.8716
9.87526
9.87878
9.88212
9.88527
9.8882
9.89091
9.8934
9.89567
9.89773
9.89959
9.90126
9.90276
9.9041
9.9053
9.90636
9.90731
9.90815
9.90889
9.90955
9.91014
9.91065
9.91111
9.91151
9.91187
9.91218
9.91246
9.9127
9.91291
9.9131
9.91327
9.91341
9.91353
9.91364
9.91374
9.91382
9.9139
9.91396
9.91402
9.91407
9.91411
9.91415
9.91418
9.91421
9.91424
9.91426
9.91428
9.9143
9.91431
9.91431
9.91432
9.51603
9.51753
9.5205
9.5249
9.53066
9.5377
9.54588
9.55507
9.56507
9.5757
9.58676
9.59803
9.60934
9.62049
9.63135
9.64178
9.65169
9.661
9.66968
9.6777
9.68505
9.69176
9.69784
9.70333
9.70826
9.71269
9.71664
9.72016
9.72329
9.72607
9.72855
9.73074
9.73268
9.7344
9.73593
9.73727
9.73846
9.73951
9.74043
9.74124
9.74196
9.74259
9.74314
9.74362
9.74404
9.74441
9.74473
9.74501
9.74526
9.74547
9.74566
9.74583
9.74598
9.74611
9.74622
9.74632
9.74641
9.74648
9.74655
9.7466
9.74665
9.74668
9.7467
9.74671
9.20853
9.21098
9.21587
9.22311
9.2326
9.24419
9.25769
9.27283
9.28933
9.30686
9.32509
9.34366
9.36227
9.38061
9.39845
9.41556
9.4318
9.44705
9.46123
9.47433
9.48633
9.49726
9.50717
9.5161
9.52412
9.5313
9.53772
9.54343
9.54851
9.55303
9.55704
9.5606
9.56374
9.56653
9.569
9.57118
9.57311
9.57481
9.57631
9.57762
9.57878
9.57979
9.58068
9.58146
9.58214
9.58274
9.58326
9.58372
9.58411
9.58446
9.58477
9.58504
9.58528
9.58549
9.58568
9.58584
9.58598
9.58611
9.58621
9.5863
9.58637
9.58643
9.58646
9.58648
8.91278
8.91618
8.92294
8.93297
8.94614
8.96223
8.98097
9.00202
9.02496
9.04932
9.07464
9.10042
9.12621
9.15161
9.17625
9.19987
9.22224
9.24321
9.26269
9.28065
9.29708
9.31202
9.32554
9.33772
9.34864
9.35842
9.36714
9.37491
9.38182
9.38795
9.39339
9.39821
9.40249
9.40627
9.40962
9.41258
9.41519
9.4175
9.41953
9.42131
9.42288
9.42425
9.42546
9.42651
9.42744
9.42824
9.42895
9.42956
9.4301
9.43057
9.43099
9.43135
9.43168
9.43196
9.43221
9.43244
9.43263
9.4328
9.43294
9.43307
9.43316
9.43324
9.43329
9.43331
8.62784
8.63217
8.64077
8.65356
8.67037
8.69094
8.71492
8.74188
8.77126
8.80247
8.83487
8.86783
8.90076
8.93312
8.96446
8.99444
9.02277
9.04927
9.07384
9.09644
9.11708
9.13582
9.15275
9.16797
9.18162
9.19381
9.20468
9.21435
9.22295
9.23057
9.23734
9.24333
9.24865
9.25335
9.25751
9.26118
9.26443
9.26729
9.26981
9.27203
9.27398
9.27568
9.27717
9.27848
9.27962
9.28062
9.28149
9.28225
9.28292
9.28351
9.28402
9.28447
9.28487
9.28523
9.28554
9.28582
9.28606
9.28627
9.28645
9.2866
9.28673
9.28682
9.28688
9.28691
8.35287
8.35811
8.36855
8.38407
8.40451
8.42956
8.45882
8.49173
8.52763
8.56575
8.6053
8.64547
8.68553
8.72481
8.76277
8.79898
8.83311
8.86497
8.89443
8.92147
8.9461
8.96842
8.98855
9.00662
9.02279
9.03723
9.05008
9.0615
9.07164
9.08064
9.08862
9.09568
9.10194
9.10749
9.11239
9.11672
9.12055
9.12392
9.12689
9.1295
9.13179
9.13379
9.13555
9.13708
9.13842
9.13959
9.14062
9.14151
9.14229
9.14298
9.14358
9.14411
9.14458
9.145
9.14537
9.14569
9.14598
9.14623
9.14645
9.14663
9.14678
9.14689
9.14697
9.147
8.08718
8.09332
8.10556
8.12379
8.14785
8.17741
8.212
8.25097
8.2935
8.33867
8.38547
8.43293
8.48015
8.52634
8.57086
8.6132
8.65301
8.69005
8.72421
8.75547
8.78388
8.80956
8.83267
8.85339
8.87189
8.88838
8.90305
8.91607
8.92763
8.93787
8.94694
8.95499
8.96211
8.96841
8.97399
8.97891
8.98326
8.9871
8.99047
8.99344
8.99604
8.99831
9.0003
9.00204
9.00356
9.00489
9.00604
9.00705
9.00794
9.00871
9.0094
9.01
9.01053
9.011
9.01142
9.01179
9.01212
9.01241
9.01266
9.01287
9.01305
9.01318
9.01326
9.01331
7.83016
7.83718
7.85118
7.87211
7.89978
7.93388
7.97389
8.01904
8.06838
8.12075
8.17497
8.22984
8.2843
8.33741
8.38844
8.43682
8.48216
8.52422
8.56288
8.59816
8.63013
8.65896
8.68484
8.70798
8.72863
8.747
8.76331
8.77778
8.79061
8.80197
8.81204
8.82095
8.82885
8.83584
8.84202
8.84749
8.85231
8.85656
8.86029
8.86358
8.86645
8.86897
8.87117
8.87309
8.87477
8.87623
8.8775
8.87861
8.87959
8.88044
8.88119
8.88186
8.88244
8.88297
8.88343
8.88385
8.88421
8.88454
8.88482
8.88506
8.88526
8.8854
8.8855
8.88555
7.5813
7.58917
7.6049
7.62847
7.65974
7.69842
7.74394
7.79544
7.85178
7.91159
7.97342
8.03586
8.09764
8.15771
8.21522
8.26955
8.32029
8.36719
8.41017
8.44924
8.48455
8.5163
8.54473
8.57011
8.5927
8.61277
8.63057
8.64634
8.6603
8.67266
8.68361
8.69331
8.7019
8.7095
8.71622
8.72217
8.72741
8.73203
8.73609
8.73965
8.74278
8.74551
8.74789
8.74997
8.75178
8.75335
8.75473
8.75593
8.75698
8.7579
8.75871
8.75943
8.76007
8.76063
8.76114
8.76159
8.762
8.76236
8.76267
8.76294
8.76315
8.76332
8.76343
8.76349
7.34016
7.34885
7.36624
7.39239
7.42723
7.4705
7.52165
7.57969
7.64329
7.71079
7.78047
7.85066
7.91988
7.98694
8.0509
8.1111
8.16711
8.21868
8.26576
8.30842
8.34684
8.38129
8.41206
8.43946
8.46381
8.4854
8.50452
8.52144
8.53641
8.54966
8.56138
8.57177
8.58097
8.58911
8.59632
8.60268
8.6083
8.61325
8.61759
8.62141
8.62474
8.62766
8.6302
8.63241
8.63434
8.63602
8.63748
8.63875
8.63987
8.64085
8.64171
8.64247
8.64315
8.64376
8.6443
8.64479
8.64523
8.64562
8.64596
8.64625
8.6465
8.64668
8.64681
8.64687
7.10638
7.11583
7.13481
7.16345
7.20179
7.24968
7.30656
7.37136
7.44249
7.518
7.59581
7.67395
7.75074
7.82483
7.89521
7.96118
8.02231
8.07838
8.12936
8.17538
8.21668
8.2536
8.28649
8.31572
8.34163
8.36458
8.38487
8.4028
8.41865
8.43266
8.44507
8.45605
8.46579
8.47441
8.48204
8.48878
8.49473
8.49996
8.50456
8.50858
8.51211
8.51518
8.51786
8.52018
8.52221
8.52397
8.5255
8.52684
8.52801
8.52904
8.52994
8.53074
8.53146
8.5321
8.53267
8.53319
8.53366
8.53408
8.53446
8.53478
8.53504
8.53524
8.53538
8.53545
6.87965
6.8898
6.91025
6.94125
6.98301
7.03549
7.09822
7.17002
7.24903
7.3329
7.41915
7.50547
7.58995
7.6711
7.74786
7.8195
7.8856
7.94599
8.00066
8.04981
8.09376
8.13292
8.16772
8.19857
8.22587
8.25001
8.27131
8.29012
8.30672
8.3214
8.33439
8.3459
8.3561
8.36514
8.37314
8.38021
8.38644
8.39192
8.39673
8.40095
8.40463
8.40783
8.41062
8.41305
8.41515
8.41698
8.41857
8.41996
8.42117
8.42224
8.42318
8.42401
8.42475
8.42542
8.42603
8.42657
8.42707
8.42752
8.42792
8.42827
8.42856
8.42878
8.42894
8.42901
6.65972
6.67049
6.69228
6.72547
6.7705
6.82753
6.89621
6.97528
7.06256
7.15519
7.25022
7.34496
7.43726
7.5255
7.60858
7.68577
7.7567
7.8212
7.87935
7.93139
7.97776
8.01893
8.05542
8.08771
8.11622
8.14139
8.16357
8.18312
8.20036
8.21559
8.22908
8.24104
8.25164
8.26104
8.26936
8.27671
8.28319
8.28889
8.29388
8.29826
8.30207
8.30539
8.30827
8.31077
8.31294
8.31482
8.31646
8.31788
8.31913
8.32023
8.32119
8.32205
8.32282
8.32351
8.32414
8.32471
8.32524
8.32572
8.32614
8.32652
8.32683
8.32708
8.32724
8.32733
6.44638
6.45768
6.48062
6.5158
6.5639
6.6254
6.70012
6.78676
6.88276
6.98461
7.08879
7.19221
7.29244
7.38777
7.47709
7.55972
7.63529
7.70372
7.76512
7.81982
7.86835
7.91131
7.94929
7.98282
8.01238
8.03842
8.06134
8.08151
8.09929
8.11498
8.12888
8.14121
8.15216
8.16187
8.17047
8.17806
8.18475
8.19063
8.19578
8.20029
8.20421
8.20762
8.21058
8.21313
8.21535
8.21727
8.21894
8.2204
8.22167
8.22279
8.22377
8.22465
8.22543
8.22615
8.2268
8.22739
8.22795
8.22845
8.22891
8.22931
8.22965
8.22992
8.2301
8.23019
6.23946
6.25119
6.27508
6.31198
6.3629
6.42871
6.50954
6.6041
6.70933
6.82092
6.93464
7.04699
7.15525
7.25766
7.35314
7.44104
7.52109
7.59325
7.65767
7.71477
7.76522
7.80975
7.84901
7.8836
7.91405
7.94083
7.96436
7.98504
8.00324
8.0193
8.03353
8.04618
8.05742
8.0674
8.07623
8.08403
8.0909
8.09693
8.10221
8.10682
8.11084
8.11432
8.11733
8.11993
8.12218
8.12413
8.12582
8.1273
8.12859
8.12972
8.13072
8.1316
8.1324
8.13313
8.1338
8.13442
8.13499
8.13552
8.13601
8.13644
8.13681
8.1371
8.1373
8.1374
6.03884
6.05086
6.07547
6.11377
6.16719
6.23709
6.32407
6.42693
6.54201
6.66391
6.7876
6.90911
7.02549
7.13492
7.23643
7.32945
7.41379
7.48949
7.5567
7.61594
7.66806
7.71392
7.75427
7.78976
7.82095
7.84833
7.87235
7.89343
7.91195
7.92829
7.94279
7.9557
7.96719
7.97739
7.98643
7.9944
8.00141
8.00757
8.01296
8.01766
8.02175
8.02528
8.02833
8.03095
8.03322
8.03519
8.03689
8.03838
8.03968
8.04082
8.04182
8.04272
8.04353
8.04427
8.04495
8.04559
8.04619
8.04674
8.04726
8.04772
8.04812
8.04843
8.04865
8.04876
5.84441
5.85659
5.88165
5.92098
5.97649
6.05018
6.1433
6.25488
6.38056
6.51342
6.64748
6.77841
6.90293
7.01929
7.12671
7.22466
7.3131
7.39215
7.46192
7.52303
7.57654
7.62353
7.66478
7.701
7.7328
7.76067
7.78507
7.80644
7.8252
7.84173
7.85642
7.86954
7.88124
7.89164
7.90084
7.90896
7.91609
7.92235
7.92782
7.93259
7.93673
7.9403
7.94337
7.94601
7.94829
7.95026
7.95197
7.95346
7.95476
7.9559
7.95691
7.95781
7.95862
7.95937
7.96007
7.96072
7.96134
7.96192
7.96247
7.96296
7.96339
7.96374
7.96397
7.96409
5.65609
5.66827
5.6935
5.73344
5.79054
5.86762
5.9668
6.08759
6.22477
6.36928
6.51414
6.65473
6.78738
6.91052
7.02369
7.12638
7.21871
7.30094
7.37304
7.43573
7.49037
7.53828
7.58025
7.61705
7.64934
7.67758
7.70225
7.72383
7.74273
7.75937
7.7742
7.7875
7.79937
7.80993
7.81928
7.82751
7.83473
7.84107
7.84661
7.85143
7.85561
7.85921
7.86228
7.86492
7.86719
7.86916
7.87087
7.87236
7.87365
7.87479
7.8758
7.8767
7.87751
7.87826
7.87897
7.87964
7.88027
7.88088
7.88146
7.88199
7.88246
7.88283
7.88308
7.8832
5.47381
5.48586
5.51093
5.55101
5.60914
5.68906
5.79413
5.92468
6.0745
6.23142
6.38742
6.53792
6.67863
6.80834
6.92711
7.0343
7.13031
7.2156
7.2898
7.35374
7.40924
7.45787
7.5004
7.53764
7.57032
7.59882
7.62366
7.64538
7.66433
7.681
7.6959
7.70936
7.72138
7.73207
7.74154
7.74986
7.75715
7.76355
7.76914
7.774
7.77821
7.78181
7.78488
7.7875
7.78976
7.79172
7.79341
7.79489
7.79618
7.79731
7.79831
7.7992
7.80001
7.80077
7.80148
7.80217
7.80282
7.80345
7.80406
7.80463
7.80513
7.80554
7.80581
7.80594
5.29753
5.30928
5.33387
5.37359
5.43208
5.51417
5.62481
5.76572
5.92964
6.09975
6.26718
6.42786
6.5765
6.71247
6.8367
6.94813
7.04758
7.13586
7.21193
7.27678
7.33283
7.38203
7.42497
7.46251
7.49549
7.52416
7.54908
7.57086
7.58979
7.6064
7.62133
7.63492
7.64708
7.65787
7.66745
7.67583
7.68317
7.68962
7.69523
7.70011
7.70435
7.70795
7.71099
7.71358
7.71582
7.71776
7.71944
7.72091
7.72218
7.7233
7.72429
7.72517
7.72597
7.72673
7.72745
7.72814
7.72882
7.72947
7.73011
7.73072
7.73127
7.73171
7.732
7.73214
5.12719
5.13849
5.16228
5.20111
5.25921
5.34262
5.45834
5.61024
5.7902
5.97427
6.15324
6.32447
6.48076
6.62259
6.75222
6.86758
6.9702
7.0615
7.13921
7.20455
7.26085
7.31051
7.35369
7.3914
7.42463
7.45337
7.47829
7.50009
7.51891
7.53536
7.55027
7.56401
7.57628
7.58715
7.59682
7.60525
7.61261
7.6191
7.62472
7.62961
7.63387
7.63745
7.64045
7.643
7.64522
7.64713
7.64879
7.65024
7.6515
7.6526
7.65358
7.65445
7.65523
7.65598
7.65671
7.65742
7.65811
7.65879
7.65946
7.66011
7.66071
7.66119
7.6615
7.66165
4.96275
4.97345
4.99612
5.03351
5.09041
5.17412
5.29416
5.45771
5.65631
5.855
6.04538
6.22768
6.39125
6.53836
6.67343
6.79235
6.8978
6.9923
7.07141
7.13677
7.19297
7.24304
7.28633
7.32406
7.35753
7.38626
7.41107
7.43287
7.4515
7.46769
7.48252
7.49645
7.50882
7.51974
7.52951
7.53796
7.54531
7.55183
7.55744
7.56233
7.56661
7.57017
7.57311
7.57561
7.5778
7.57968
7.58131
7.58274
7.58398
7.58506
7.58603
7.58688
7.58765
7.58839
7.58913
7.58984
7.59054
7.59125
7.59194
7.59264
7.5933
7.59382
7.59415
7.59431
4.80416
4.81413
4.83538
4.87079
4.92561
5.00842
5.13167
5.30743
5.52827
5.74202
5.94328
6.13752
6.30775
6.45936
6.60016
6.72214
6.82998
6.92811
7.00836
7.07315
7.12888
7.17942
7.22267
7.26024
7.29401
7.32262
7.34721
7.36903
7.38739
7.4032
7.4179
7.43209
7.44454
7.45547
7.46536
7.4738
7.4811
7.48766
7.49325
7.49811
7.50243
7.50597
7.50882
7.51125
7.51341
7.51525
7.51685
7.51827
7.51948
7.52054
7.52149
7.52232
7.52307
7.5238
7.52455
7.52527
7.52598
7.52671
7.52743
7.52818
7.52892
7.52948
7.52982
7.52998
4.65136
4.66049
4.68004
4.71296
4.76479
4.84529
4.97023
5.15852
5.40667
5.63545
5.84647
6.0541
6.23008
6.38509
6.5323
6.65667
6.76629
6.86882
6.94988
7.01339
7.06822
7.11947
7.16248
7.19969
7.2339
7.26227
7.2865
7.30843
7.32642
7.3417
7.3562
7.37079
7.38328
7.39417
7.40423
7.41261
7.41983
7.42645
7.432
7.43681
7.4412
7.44469
7.44744
7.44978
7.45192
7.45372
7.45527
7.45669
7.45787
7.4589
7.45984
7.46064
7.46136
7.46208
7.46285
7.46357
7.46428
7.46504
7.46579
7.46658
7.46741
7.46802
7.46837
7.46853
4.50428
4.51247
4.53009
4.56003
4.60799
4.68461
4.80916
5.00981
5.29245
5.53542
5.75428
5.97769
6.15804
6.31492
6.46985
6.59564
6.70615
6.81443
6.89585
6.9572
7.01063
7.06304
7.10557
7.14215
7.17707
7.20504
7.22873
7.25093
7.26845
7.28302
7.29724
7.31242
7.32492
7.33569
7.34599
7.35427
7.36135
7.36808
7.37354
7.37828
7.38279
7.38621
7.38882
7.39106
7.39321
7.39495
7.39645
7.39787
7.39902
7.40001
7.40094
7.40171
7.40239
7.4031
7.40389
7.40461
7.40532
7.40612
7.40688
7.40771
7.40866
7.40932
7.40968
7.40983
4.36286
4.37002
4.38551
4.41207
4.45527
4.52633
4.64778
4.85969
5.18707
5.44212
5.66569
5.90881
6.09145
6.24803
6.41297
6.53878
6.64889
6.76504
6.84615
6.90426
6.95569
7.01007
7.05175
7.08732
7.12343
7.15076
7.17367
7.19643
7.21333
7.22696
7.2408
7.25691
7.26932
7.27984
7.29052
7.29863
7.30549
7.31243
7.31775
7.32236
7.32707
7.33041
7.33284
7.33497
7.33713
7.33881
7.34025
7.34168
7.34279
7.34373
7.34468
7.34541
7.34604
7.34673
7.34756
7.34827
7.34898
7.34981
7.35058
7.35145
7.35255
7.35325
7.35361
7.35375
4.22699
4.23307
4.24628
4.2691
4.30679
4.37052
4.48548
4.70593
5.09271
5.35569
5.57926
5.84831
6.03009
6.18334
6.36207
6.48583
6.59363
6.72094
6.80069
6.85425
6.90292
6.96057
7.00087
7.03486
7.07295
7.09927
7.12106
7.14486
7.16095
7.17338
7.18666
7.20419
7.21635
7.22646
7.23775
7.24557
7.25211
7.25938
7.2645
7.26892
7.27395
7.27717
7.27938
7.28135
7.28359
7.28519
7.28654
7.28802
7.28907
7.28996
7.29093
7.29162
7.29219
7.29284
7.29374
7.29443
7.29512
7.29601
7.29677
7.29767
7.29897
7.2997
7.30004
7.30018
4.09657
4.10155
4.11237
4.1312
4.16269
4.21739
4.32175
4.54546
5.0125
5.27624
5.49295
5.79752
5.97374
6.11944
6.31785
6.43649
6.53922
6.68264
6.75935
6.80685
6.85176
6.91467
6.95274
6.9844
7.02566
7.05044
7.07063
7.09621
7.11118
7.1221
7.13457
7.15424
7.16589
7.17535
7.1876
7.19497
7.20104
7.20886
7.21367
7.21781
7.22333
7.22637
7.22831
7.2301
7.23248
7.23397
7.2352
7.23677
7.23775
7.23856
7.23959
7.24022
7.24072
7.24133
7.24233
7.24298
7.24363
7.24462
7.24534
7.24623
7.24781
7.24856
7.24887
7.24899
3.9715
3.97535
3.98373
3.9984
4.02319
4.0673
4.15636
4.37403
4.95083
5.20376
5.40393
5.75846
5.92212
6.05445
6.28148
6.39052
6.48422
6.65096
6.72201
6.76174
6.80153
6.87263
6.90722
6.93547
6.98168
7.0041
7.02202
7.0505
7.06392
7.07298
7.08426
7.1071
7.11783
7.1263
7.14003
7.14671
7.1521
7.16081
7.16515
7.16886
7.17513
7.17791
7.17951
7.18107
7.1837
7.18503
7.18612
7.18785
7.18872
7.18943
7.19055
7.19111
7.19153
7.19208
7.19322
7.19382
7.1944
7.19552
7.19617
7.19703
7.19899
7.19972
7.19999
7.20009
3.85165
3.85436
3.8603
3.87072
3.88849
3.92073
3.98952
4.18581
4.91376
5.13803
5.30838
5.73403
5.8749
5.98593
6.25471
6.34761
6.42669
6.62717
6.68844
6.71862
6.75141
6.83493
6.86415
6.88749
6.94126
6.96013
6.97486
7.00783
7.01905
7.02589
7.0354
7.06286
7.07206
7.07907
7.09505
7.10067
7.10511
7.11518
7.11882
7.1219
7.12932
7.13168
7.13288
7.13415
7.13718
7.13828
7.13918
7.14115
7.14187
7.14245
7.14373
7.14419
7.1445
7.14497
7.14633
7.14683
7.14733
7.14862
7.14918
7.14994
7.15241
7.15307
7.15329
7.15336
3.73687
3.73848
3.74199
3.74818
3.75879
3.77833
3.8221
3.97297
4.90947
5.07851
5.20123
5.72828
5.8316
5.91066
6.23999
6.30745
6.3642
6.61304
6.65829
6.67725
6.70037
6.80226
6.82334
6.83974
6.90479
6.91836
6.92866
6.9684
6.97644
6.98072
6.98759
7.02172
7.02845
7.03338
7.05271
7.05675
7.05986
7.07197
7.07458
7.07676
7.08584
7.08756
7.08832
7.0892
7.09284
7.09362
7.09424
7.0966
7.09711
7.09751
7.09904
7.09936
7.09956
7.09989
7.10157
7.10193
7.10229
7.10386
7.10425
7.10483
7.10802
7.10853
7.10866
7.10871
3.62702
3.62755
3.62871
3.63076
3.63427
3.64078
3.65596
3.72503
4.94876
5.02422
5.07592
5.74675
5.79158
5.82455
6.24074
6.26967
6.2936
6.61106
6.63096
6.63748
6.64712
6.77561
6.78461
6.79136
6.87285
6.87862
6.88284
6.93251
6.93593
6.9374
6.94035
6.98395
6.98687
6.9889
7.01311
7.01482
7.0161
7.03122
7.03232
7.03323
7.04472
7.04546
7.04572
7.04608
7.05062
7.05095
7.0512
7.05412
7.05434
7.0545
7.05639
7.05653
7.05659
7.05674
7.05887
7.05902
7.05917
7.06114
7.06131
7.06156
7.06574
7.06598
7.06602
7.06604
)
;

boundaryField
{
    left
    {
        type            zeroGradient;
    }
    right
    {
        type            zeroGradient;
    }
    interface
    {
        type            fixedValue;
        value           nonuniform List<scalar> 
64
(
3.57332
3.57332
3.57332
3.57332
3.57332
3.57332
3.57332
3.57332
4.99832
4.99832
4.99832
5.77233
5.77233
5.77233
6.25134
6.25134
6.25134
6.61796
6.61796
6.61796
6.61796
6.76575
6.76575
6.76575
6.85925
6.85925
6.85925
6.91619
6.91619
6.91619
6.91619
6.96658
6.96658
6.96658
6.99436
6.99436
6.99436
7.01168
7.01168
7.01168
7.02491
7.02491
7.02491
7.02491
7.03011
7.03011
7.03011
7.03344
7.03344
7.03344
7.0356
7.0356
7.0356
7.0356
7.03806
7.03806
7.03806
7.04033
7.04033
7.04033
7.04519
7.04519
7.04519
7.04519
)
;
    }
    bottom
    {
        type            fixedValue;
        value           uniform 10;
    }
    defaultFaces
    {
        type            empty;
    }
}


// ************************************************************************* //
