/*--------------------------------*- C++ -*----------------------------------*\
| =========                 |                                                 |
| \\      /  F ield         | OpenFOAM: The Open Source CFD Toolbox           |
|  \\    /   O peration     | Version:  5.x                                   |
|   \\  /    A nd           | Web:      www.OpenFOAM.org                      |
|    \\/     M anipulation  |                                                 |
\*---------------------------------------------------------------------------*/
FoamFile
{
    version     2.0;
    format      ascii;
    class       volScalarField;
    location    "2.6";
    object      gradTx;
}
// * * * * * * * * * * * * * * * * * * * * * * * * * * * * * * * * * * * * * //

dimensions      [0 -1 0 1 0 0 0];

internalField   nonuniform List<scalar> 
2048
(
0.019543
0.0583888
0.0964897
0.133289
0.168166
0.200435
0.229395
0.254385
0.27485
0.290409
0.30089
0.306346
0.307042
0.303413
0.296021
0.285501
0.272518
0.257723
0.24173
0.225086
0.208262
0.191645
0.175536
0.160159
0.145665
0.132149
0.119654
0.108185
0.0977191
0.0882072
0.0795872
0.0717874
0.0647325
0.0583485
0.0525661
0.0473223
0.0425617
0.0382365
0.0343059
0.0307354
0.0274954
0.0245605
0.0219081
0.0195177
0.0173698
0.0154456
0.0137268
0.012195
0.0108322
0.00962082
0.00854349
0.00758335
0.00672402
0.00594978
0.00524569
0.00459777
0.00399332
0.00342111
0.00287163
0.00233721
0.00181207
0.00129215
0.000774785
0.000258237
0.0579742
0.173229
0.286327
0.395635
0.499303
0.595281
0.681444
0.755778
0.816597
0.862734
0.893674
0.909588
0.911284
0.900093
0.877714
0.846065
0.807142
0.7629
0.715166
0.665572
0.615517
0.566142
0.518335
0.472748
0.429824
0.389828
0.352885
0.319002
0.2881
0.260032
0.234608
0.211611
0.190816
0.172
0.154958
0.139501
0.125467
0.112714
0.101123
0.0905913
0.0810339
0.0723759
0.0645515
0.0575007
0.0511663
0.0454932
0.0404267
0.0359131
0.0318989
0.0283319
0.0251609
0.0223359
0.0198084
0.0175318
0.0154618
0.0135567
0.011779
0.0100952
0.008477
0.00690189
0.00535283
0.00381808
0.0022902
0.000763635
0.0952536
0.284682
0.470733
0.650783
0.821786
0.980296
1.12269
1.24548
1.34578
1.42155
1.47192
1.49723
1.49887
1.47917
1.441
1.38764
1.32243
1.24865
1.16933
1.08717
1.00447
0.923097
0.844485
0.769673
0.699359
0.633949
0.573619
0.518361
0.468025
0.422356
0.381026
0.343667
0.309899
0.279352
0.251682
0.226582
0.203786
0.183064
0.164223
0.1471
0.131557
0.117476
0.104751
0.0932857
0.0829894
0.073772
0.0655448
0.0582196
0.0517092
0.0459281
0.0407925
0.0362205
0.0321329
0.028453
0.0251077
0.0220289
0.0191541
0.0164283
0.0138052
0.0112478
0.00872856
0.00622882
0.00373869
0.00124767
0.131655
0.393602
0.651232
0.901047
1.13882
1.35964
1.5582
1.72937
1.8688
1.97352
2.04226
2.07556
2.07558
2.04571
1.99022
1.91377
1.82116
1.71703
1.60563
1.49074
1.37553
1.26257
1.15377
1.05053
0.953742
0.863906
0.781217
0.705621
0.636877
0.574601
0.518313
0.467483
0.421565
0.380035
0.342414
0.308277
0.277258
0.249049
0.223387
0.200055
0.17887
0.159674
0.142328
0.126705
0.112682
0.100136
0.0889463
0.0789922
0.0701536
0.0623127
0.0553545
0.0491665
0.0436395
0.0386677
0.0341499
0.0299911
0.0261047
0.0224143
0.0188558
0.0153784
0.0119444
0.00852901
0.00512307
0.00171126
0.167336
0.500497
0.828789
1.148
1.45274
1.7365
1.99203
2.21221
2.39095
2.52415
2.61011
2.64971
2.64601
2.60375
2.52871
2.42716
2.30543
2.16956
2.0251
1.8769
1.72899
1.58459
1.44606
1.31507
1.19264
1.07932
0.975281
0.880388
0.794281
0.716426
0.646171
0.5828
0.525593
0.473863
0.426993
0.384444
0.345758
0.310552
0.278505
0.249351
0.222868
0.198868
0.177184
0.157661
0.140149
0.124496
0.11055
0.0981575
0.0871663
0.0774279
0.0687973
0.0611327
0.0542957
0.0481519
0.0425721
0.0374348
0.0326287
0.0280561
0.0236353
0.019302
0.0150092
0.0107265
0.00644823
0.00215583
0.202338
0.605542
1.00385
1.39253
1.7651
2.11323
2.42737
2.69792
2.91666
3.07806
3.18
3.22384
3.21386
3.1564
3.05904
2.92982
2.77674
2.60733
2.42845
2.24605
2.06503
1.88918
1.72127
1.56312
1.41586
1.27999
1.1556
1.04246
0.940061
0.847684
0.764483
0.689537
0.621929
0.560801
0.505396
0.455066
0.409269
0.367555
0.329555
0.294961
0.26352
0.235021
0.209276
0.186111
0.16535
0.146814
0.13032
0.115682
0.102717
0.0912477
0.0810992
0.0721019
0.0640893
0.0568989
0.0503732
0.0443635
0.0387339
0.0333645
0.0281562
0.0230316
0.0179349
0.012831
0.00772044
0.00258335
0.236595
0.708596
1.17635
1.63492
2.07676
2.4915
2.86677
3.18985
3.44976
3.63924
3.75575
3.8014
3.78204
3.70605
3.58309
3.4232
3.23614
3.03103
2.81609
2.59839
2.38368
2.17631
1.97931
1.79463
1.62333
1.46584
1.32214
1.19181
1.0742
0.968381
0.873285
0.787755
0.710652
0.640936
0.577711
0.520225
0.467863
0.420122
0.376589
0.336925
0.300855
0.268151
0.238615
0.212057
0.188283
0.167086
0.148251
0.131562
0.116805
0.103771
0.0922603
0.082076
0.0730247
0.0649158
0.0575632
0.0507905
0.0444357
0.0383567
0.0324362
0.0265843
0.0207363
0.0148541
0.00894694
0.00299617
0.269936
0.809211
1.34575
1.87483
2.38791
2.87234
3.31224
3.69085
3.99366
4.21123
4.34066
4.3852
4.35283
4.25444
4.10216
3.90821
3.68425
3.44103
3.18818
2.93394
2.68491
2.44591
2.22017
2.00959
1.8151
1.63695
1.47495
1.32852
1.1968
1.07865
0.972736
0.877632
0.79195
0.714456
0.644112
0.580079
0.521683
0.468376
0.419714
0.375333
0.334945
0.298314
0.265243
0.235535
0.208978
0.185339
0.164371
0.145823
0.12945
0.115018
0.102298
0.0910717
0.0811187
0.0722206
0.0641617
0.0567364
0.0497559
0.0430548
0.0364973
0.0299802
0.0234305
0.0168089
0.0101356
0.00339676
0.302093
0.906646
1.51107
2.11134
2.69817
3.25627
3.76539
4.20353
4.55152
4.79726
4.9376
4.97755
4.92793
4.80276
4.61702
4.38535
4.12134
3.83742
3.54467
3.25257
2.96858
2.69793
2.44386
2.20809
1.99129
1.79349
1.61424
1.45279
1.30808
1.17872
1.06309
0.959443
0.866103
0.781625
0.704845
0.634848
0.57092
0.512488
0.459079
0.410315
0.365898
0.3256
0.289234
0.256605
0.227489
0.201623
0.178724
0.158507
0.140693
0.125022
0.111244
0.0991168
0.0883976
0.0788391
0.0701946
0.0622275
0.0547208
0.0474848
0.0403641
0.0332419
0.0260364
0.0187094
0.0112947
0.00378756
0.332702
0.999887
1.67085
2.34297
3.00651
3.64324
4.22747
4.73029
5.12639
5.40034
5.54911
5.58029
5.5085
5.35166
5.12803
4.85477
4.54746
4.22013
3.88538
3.55407
3.23452
2.93228
2.65041
2.39028
2.15216
1.93572
1.74029
1.56491
1.40832
1.2689
1.14468
1.03354
0.933458
0.842774
0.760205
0.684792
0.615806
0.552659
0.494865
0.442028
0.393849
0.350119
0.310678
0.275347
0.243888
0.216006
0.191376
0.169672
0.150586
0.13383
0.119137
0.106247
0.094894
0.084803
0.075693
0.067294
0.0593597
0.0516748
0.0440635
0.0363941
0.0285745
0.0205704
0.0124323
0.00417086
0.361319
1.08767
1.82322
2.56766
3.31131
4.03275
4.69949
5.27354
5.72135
6.02342
6.17743
6.19482
6.09522
5.90134
5.63512
5.31634
4.96241
4.58891
4.21
3.83808
3.4825
3.1489
2.83995
2.55642
2.29802
2.06401
1.85345
1.66521
1.49786
1.34955
1.21791
1.10034
0.994422
0.898275
0.810523
0.7302
0.656593
0.589117
0.527272
0.470649
0.418949
0.371995
0.329678
0.29185
0.258259
0.228568
0.202402
0.179391
0.159191
0.141497
0.126025
0.112502
0.100645
0.0901478
0.0806913
0.0719686
0.0637033
0.0556544
0.0476238
0.0394624
0.0310658
0.0224066
0.0135562
0.00454858
0.387435
1.16851
1.96594
2.78282
3.61033
4.42376
5.18226
5.83578
6.33965
6.66937
6.82455
6.82211
6.68825
6.45151
6.1379
5.76967
5.36592
4.94346
4.51812
4.10423
3.71226
3.34777
3.01266
2.70685
2.42931
2.1788
1.95415
1.75409
1.57709
1.42106
1.28321
1.1603
1.04945
0.948538
0.856156
0.771375
0.693545
0.622097
0.556515
0.496372
0.441364
0.391361
0.346343
0.306211
0.270694
0.239398
0.211889
0.187742
0.166582
0.148085
0.131959
0.117927
0.10569
0.0949115
0.0852258
0.0762852
0.0677833
0.0594533
0.0510732
0.0424735
0.0335322
0.024233
0.0146734
0.00492221
0.410494
1.24078
2.09642
2.98531
3.90066
4.8147
5.67643
6.41977
6.98481
7.34112
7.49217
7.46269
7.28723
7.00147
6.63565
6.21425
5.75765
5.28348
4.80929
4.35202
3.92353
3.52892
3.16882
2.84201
2.54654
2.28062
2.04289
1.83201
1.6464
1.48387
1.34107
1.21395
1.09902
0.993994
0.897469
0.808625
0.72693
0.651842
0.582817
0.5194
0.461267
0.408354
0.360781
0.318528
0.281292
0.248595
0.219929
0.194813
0.172833
0.153657
0.136994
0.122564
0.110069
0.0991333
0.0893348
0.0802785
0.0716307
0.0631005
0.0544401
0.0454545
0.0359962
0.0260638
0.0157899
0.00529272
0.429917
1.30272
2.21181
3.17148
4.1787
5.20338
6.18251
7.02869
7.66086
8.0416
8.18173
8.11661
7.89128
7.5501
7.12743
6.64941
6.13729
5.60869
5.08303
4.58089
4.11605
3.69245
3.30878
2.96245
2.65033
2.37005
2.1202
1.89941
1.70619
1.53838
1.392
1.26183
1.14365
1.03508
0.934827
0.842247
0.757009
0.678591
0.606403
0.539945
0.478839
0.423109
0.373096
0.328901
0.290153
0.256259
0.226624
0.200695
0.178025
0.158283
0.141182
0.126458
0.11382
0.102853
0.0930574
0.0839824
0.0752751
0.0666233
0.0577517
0.0484334
0.0384812
0.0279128
0.0169103
0.00566039
0.445136
1.35258
2.30909
3.33724
4.44009
5.58687
6.70088
7.66638
8.37241
8.77374
8.89426
8.78344
8.49894
8.09588
7.61209
7.07444
6.50465
5.919
5.33877
4.79018
4.28955
3.83855
3.43303
3.06882
2.74141
2.44775
2.18666
1.95676
1.75682
1.58501
1.43653
1.30454
1.18387
1.07225
0.968591
0.872522
0.784029
0.702579
0.627493
0.558223
0.494267
0.435754
0.383382
0.337423
0.297382
0.262495
0.232076
0.205485
0.182239
0.162029
0.144577
0.129648
0.11698
0.106112
0.0964337
0.0874299
0.0787438
0.0700465
0.0610336
0.051439
0.0410116
0.0297927
0.0180375
0.00602473
0.455623
1.38868
2.38518
3.4781
4.67969
5.96138
7.23174
8.33759
9.12495
9.54032
9.63041
9.46225
9.10814
8.63696
8.08837
7.48856
6.85977
6.21453
5.5759
4.97904
4.44377
3.96757
3.54212
3.16188
2.82056
2.51439
2.24286
2.00456
1.79863
1.6241
1.47525
1.34274
1.22022
1.10594
0.999105
0.899704
0.808222
0.724033
0.646302
0.574461
0.507748
0.446406
0.391712
0.344183
0.303085
0.267411
0.236393
0.209282
0.185558
0.164965
0.147234
0.132168
0.11958
0.108952
0.0995058
0.090652
0.0820611
0.0733918
0.0643091
0.0545018
0.0436145
0.0317146
0.0191712
0.00638419
0.460926
1.40949
2.43711
3.58933
4.89153
6.32199
7.77501
9.04837
9.92509
10.3438
10.3903
10.1516
9.71608
9.17119
8.55497
7.89089
7.20298
6.49577
5.7937
5.14637
4.57853
4.08002
3.63671
3.2425
2.88868
2.57066
2.28946
2.0433
1.83184
1.65596
1.50878
1.37713
1.25323
1.13657
1.0267
0.924006
0.829799
0.743169
0.663032
0.588895
0.519491
0.455169
0.39814
0.349268
0.307375
0.271114
0.239683
0.212186
0.188061
0.16716
0.149202
0.134047
0.121648
0.111416
0.102318
0.0936767
0.0852477
0.0766768
0.0675976
0.0576542
0.0463202
0.0336875
0.0203075
0.00673573
0.460704
1.41378
2.46214
3.66604
5.06876
6.6624
8.33008
9.80655
10.7809
11.1857
11.1734
10.8499
10.3191
9.69622
9.01069
8.28042
7.53507
6.76375
5.99121
5.29072
4.69375
4.17668
3.7175
3.31164
2.94679
2.61723
2.32713
2.07352
1.8566
1.68078
1.53779
1.40851
1.28338
1.16454
1.05168
0.945587
0.848951
0.760201
0.67786
0.601776
0.529728
0.462117
0.402683
0.35276
0.310373
0.273706
0.242059
0.214304
0.189823
0.168682
0.150536
0.135304
0.1232
0.113552
0.104921
0.0965275
0.0883198
0.0799146
0.0709129
0.0609324
0.0491645
0.0357169
0.0214365
0.0070742
0.454749
1.40066
2.45796
3.70346
5.20376
6.97456
8.89549
10.6224
11.7022
12.0664
11.9785
11.5552
10.9125
10.2097
9.45463
8.65571
7.85739
7.02029
6.16711
5.41009
4.78952
4.2587
3.78515
3.37039
2.99601
2.65467
2.35657
2.0958
1.87288
1.69859
1.56308
1.43778
1.3111
1.19022
1.07437
0.964532
0.865856
0.775344
0.690923
0.613377
0.538728
0.467295
0.405318
0.354744
0.312214
0.275285
0.243633
0.215743
0.190909
0.169601
0.151288
0.135944
0.124245
0.115415
0.107369
0.0992203
0.0912902
0.0831144
0.0742604
0.0643779
0.0521916
0.0378032
0.0225401
0.00739151
0.443015
1.36971
2.42286
3.69711
5.28814
7.24827
9.46829
11.5097
12.7016
12.9834
12.804
12.2659
11.49
10.7094
9.88648
9.01454
8.17209
7.26833
6.31947
5.50172
4.86631
4.3277
3.84016
3.41993
3.03765
2.68335
2.37859
2.11088
1.88043
1.70924
1.5856
1.46603
1.33668
1.21397
1.0951
0.980819
0.880688
0.788833
0.702291
0.624004
0.546813
0.470692
0.40596
0.35532
0.313056
0.275929
0.244523
0.216618
0.191369
0.169989
0.15152
0.135958
0.124773
0.11707
0.10973
0.101759
0.094168
0.0862816
0.0776329
0.06804
0.0554578
0.0399387
0.0235891
0.00767557
0.425625
1.321
2.35587
3.64315
5.31306
7.47072
10.0431
12.4866
13.7951
13.93
13.6476
12.9816
12.043
11.1937
10.3069
9.35329
8.48235
7.51239
6.44539
5.56181
4.92515
4.38601
3.88262
3.46161
3.07327
2.70331
2.39406
2.11969
1.8787
1.71226
1.60654
1.49454
1.36014
1.23612
1.11424
0.994272
0.893633
0.800942
0.711928
0.634012
0.554394
0.472229
0.404452
0.354612
0.31309
0.275685
0.24485
0.217059
0.191229
0.169924
0.151306
0.135314
0.124755
0.118601
0.112085
0.104131
0.0969613
0.0894206
0.0810029
0.0719793
0.0590371
0.0421037
0.0245398
0.00790943
0.40287
1.25514
2.25693
3.53865
5.26946
7.62613
10.6106
13.5777
15.003
14.893
14.5075
13.7037
12.5595
11.6621
10.7182
9.66586
8.79279
7.75925
6.5405
5.58518
4.96798
4.43686
3.91186
3.49697
3.10482
2.71404
2.40407
2.12353
1.86677
1.70676
1.62746
1.52492
1.38116
1.25702
1.13229
1.00448
0.904928
0.812026
0.719621
0.643828
0.562004
0.471719
0.400536
0.352791
0.312561
0.274549
0.244746
0.217215
0.190475
0.169493
0.150741
0.133949
0.124131
0.120118
0.11454
0.10629
0.0996805
0.0925384
0.0843133
0.0762729
0.0630276
0.0442603
0.0253313
0.00807061
0.375202
1.17326
2.12693
3.38194
5.14867
7.69537
11.1556
14.8162
16.3522
15.8487
15.3827
14.4373
13.0223
12.1159
11.1254
9.94214
9.11
8.01878
6.59818
5.56481
4.99808
4.48474
3.92594
3.52795
3.13484
2.7141
2.40993
2.12421
1.84315
1.69132
1.65042
1.55921
1.39881
1.2771
1.14996
1.01068
0.9149
0.822575
0.724889
0.653989
0.57036
0.468825
0.393836
0.350106
0.311781
0.27243
0.244366
0.217268
0.189029
0.168804
0.149956
0.131766
0.122804
0.12177
0.117227
0.108147
0.102345
0.0956514
0.0874611
0.0810213
0.0675613
0.0463439
0.0258826
0.00813134
0.343208
1.07699
1.96779
3.17291
4.943
7.65597
11.6535
16.2462
17.8783
16.7584
16.2751
15.1932
13.406
12.5597
11.537
10.1658
9.44335
8.30509
6.60862
5.49142
5.02073
4.53583
3.92083
3.55704
3.16677
2.70071
2.41343
2.12434
1.80564
1.66375
1.6782
1.60001
1.41122
1.29695
1.16827
1.0116
0.924049
0.833293
0.726841
0.665188
0.58043
0.462996
0.38382
0.34692
0.311159
0.269104
0.243894
0.217454
0.186723
0.167988
0.149133
0.128615
0.120621
0.123758
0.120325
0.109544
0.104993
0.0987961
0.0902764
0.0863579
0.0728158
0.0482513
0.026093
0.00805978
0.30758
0.96833
1.78239
2.91329
4.64665
7.4825
12.0668
17.9267
19.6287
17.561
17.1918
15.9907
13.6736
13.0027
11.9676
10.3111
9.80614
8.63795
6.5574
5.35291
5.04393
4.59848
3.88941
3.58769
3.20533
2.66903
2.41699
2.12761
1.7511
1.62087
1.71459
1.65074
1.41522
1.31746
1.18875
1.00519
0.933149
0.845213
0.723981
0.678349
0.593523
0.453385
0.369777
0.343758
0.311236
0.264145
0.243579
0.21809
0.183254
0.167224
0.148524
0.124279
0.117359
0.126356
0.124066
0.110222
0.107698
0.102044
0.0924913
0.0924631
0.0790286
0.0498236
0.0258437
0.00782285
0.26908
0.849607
1.57448
2.60677
4.25668
7.14757
12.3387
19.9357
21.667
18.1644
18.1489
16.8613
13.7703
13.4617
12.4395
10.3388
10.2172
9.0445
6.42377
5.1339
5.07934
4.6839
3.82001
3.62482
3.25712
2.61127
2.42402
2.13917
1.67514
1.55822
1.76464
1.71587
1.40574
1.34009
1.21365
0.988282
0.943399
0.859841
0.713947
0.694734
0.611399
0.438736
0.350787
0.341368
0.312723
0.256843
0.243756
0.219605
0.178122
0.166754
0.14848
0.118461
0.112703
0.129935
0.128764
0.109775
0.110584
0.105521
0.0936995
0.0995823
0.0865159
0.0508249
0.0250048
0.00739053
0.228499
0.723318
1.34849
2.25905
3.77406
6.62394
12.386
22.3756
24.079
18.4331
19.1767
17.8532
13.6169
13.9637
12.9861
10.1904
10.7034
9.56135
6.17834
4.81528
5.14337
4.80705
3.69454
3.6756
3.33126
2.51552
2.43938
2.16609
1.57184
1.46974
1.83507
1.80127
1.37508
1.36712
1.24623
0.95617
0.956629
0.879352
0.693161
0.716081
0.636399
0.417244
0.325687
0.340787
0.316558
0.24608
0.244908
0.22259
0.170554
0.166918
0.149479
0.110754
0.106219
0.134988
0.134834
0.107599
0.113861
0.109439
0.0933019
0.108051
0.0956943
0.050912
0.0234462
0.00674142
0.18662
0.592014
1.10931
1.87767
3.20463
5.88777
12.0894
25.3787
26.9798
18.1734
20.3266
19.0374
13.0996
14.5508
13.6559
9.78093
11.3021
10.2368
5.78037
4.37389
5.25834
4.98759
3.48616
3.7505
3.44029
2.36417
2.47004
2.2178
1.43327
1.34735
1.93471
1.91468
1.31195
1.40211
1.29107
0.901984
0.975576
0.906824
0.656385
0.744797
0.671589
0.386381
0.293066
0.343415
0.323969
0.230188
0.247723
0.227851
0.159407
0.168193
0.152158
0.100623
0.0973278
0.142159
0.142831
0.102809
0.117857
0.114128
0.0904378
0.118328
0.107105
0.0495977
0.0210543
0.00586881
0.144185
0.458179
0.862034
1.47168
2.55985
4.92368
11.2819
29.1146
30.5232
17.1149
21.6809
20.5134
12.0588
15.2858
14.5168
8.99049
12.0658
11.1335
5.17435
3.78245
5.45371
5.25125
3.15637
3.86461
3.6012
2.13206
2.52584
2.30661
1.24912
1.18054
2.07491
2.06622
1.20037
1.45045
1.35451
0.815971
1.00422
0.946536
0.596173
0.784213
0.720921
0.342686
0.251253
0.351092
0.336556
0.206764
0.253183
0.236475
0.14304
0.17125
0.157346
0.0873688
0.0852687
0.152284
0.15349
0.0941575
0.123064
0.120085
0.0838988
0.131036
0.121445
0.0462028
0.0177554
0.00478584
0.101868
0.324122
0.611659
1.05108
1.85704
3.73171
9.73393
33.7976
34.9134
14.8876
23.3635
22.4177
10.2737
16.2589
15.6617
7.65313
13.0672
12.3309
4.28607
3.0098
5.76723
5.63135
2.65151
4.03944
3.83661
1.78418
2.62065
2.44823
1.00618
0.955931
2.27005
2.2691
1.01823
1.52008
1.44511
0.68459
1.04826
1.00431
0.502201
0.838904
0.789394
0.281516
0.19834
0.366169
0.356389
0.172453
0.262674
0.249912
0.119167
0.177022
0.1661
0.070107
0.0690653
0.166418
0.167777
0.0799193
0.130198
0.128022
0.0720255
0.147015
0.139595
0.0397986
0.0135443
0.00352812
0.0602596
0.191893
0.36284
0.626225
1.11889
2.33669
7.13707
39.6944
40.4187
10.9956
25.5551
24.931
7.44593
17.5963
17.2148
5.54447
14.405
13.9278
3.01821
2.02157
6.24594
6.17067
1.89871
4.30498
4.17609
1.27292
2.7737
2.66215
0.687825
0.656802
2.53797
2.54039
0.735713
1.62233
1.57415
0.489461
1.11557
1.08788
0.360486
0.915086
0.883218
0.196767
0.132224
0.391571
0.386125
0.122696
0.278119
0.270059
0.0846791
0.186795
0.179732
0.0477309
0.0474883
0.185869
0.186958
0.0577643
0.140263
0.138937
0.0525852
0.167383
0.162655
0.0291377
0.00852023
0.00215175
0.0198508
0.0632357
0.119678
0.206987
0.372033
0.800151
3.0846
47.1331
47.3876
4.78736
28.5093
28.2876
3.17953
19.4708
19.3381
2.36737
16.2123
16.0446
1.24541
0.781406
6.94681
6.92369
0.80131
4.70225
4.65759
0.535059
3.01123
2.97205
0.273537
0.262658
2.90039
2.902
0.313408
1.77297
1.75615
0.206156
1.2169
1.20737
0.152498
1.0211
1.00995
0.08057
0.0506903
0.430834
0.429149
0.0514384
0.302133
0.299352
0.0354484
0.202315
0.199834
0.0188855
0.0190187
0.212234
0.212667
0.0246113
0.154626
0.154179
0.0226329
0.193614
0.191974
0.0125746
0.00292801
0.000724677
)
;

boundaryField
{
    left
    {
        type            calculated;
        value           uniform 0;
    }
    right
    {
        type            calculated;
        value           uniform 0;
    }
    interface
    {
        type            calculated;
        value           nonuniform List<scalar> 
64
(
0.0198508
0.0632357
0.119678
0.206987
0.372033
0.800151
3.0846
47.1331
47.3876
4.78736
28.5093
28.2876
3.17953
19.4708
19.3381
2.36737
16.2123
16.0446
1.24541
0.781406
6.94681
6.92369
0.80131
4.70225
4.65759
0.535059
3.01123
2.97205
0.273537
0.262658
2.90039
2.902
0.313408
1.77297
1.75615
0.206156
1.2169
1.20737
0.152498
1.0211
1.00995
0.08057
0.0506903
0.430834
0.429149
0.0514384
0.302133
0.299352
0.0354484
0.202315
0.199834
0.0188855
0.0190187
0.212234
0.212667
0.0246113
0.154626
0.154179
0.0226329
0.193614
0.191974
0.0125746
0.00292801
0.000724677
)
;
    }
    bottom
    {
        type            calculated;
        value           nonuniform List<scalar> 
64
(
0.019543
0.0583888
0.0964897
0.133289
0.168166
0.200435
0.229395
0.254385
0.27485
0.290409
0.30089
0.306346
0.307042
0.303413
0.296021
0.285501
0.272518
0.257723
0.24173
0.225086
0.208262
0.191645
0.175536
0.160159
0.145665
0.132149
0.119654
0.108185
0.0977191
0.0882072
0.0795872
0.0717874
0.0647325
0.0583485
0.0525661
0.0473223
0.0425617
0.0382365
0.0343059
0.0307354
0.0274954
0.0245605
0.0219081
0.0195177
0.0173698
0.0154456
0.0137268
0.012195
0.0108322
0.00962082
0.00854349
0.00758335
0.00672402
0.00594978
0.00524569
0.00459777
0.00399332
0.00342111
0.00287163
0.00233721
0.00181207
0.00129215
0.000774785
0.000258237
)
;
    }
    defaultFaces
    {
        type            empty;
    }
}


// ************************************************************************* //
