/*--------------------------------*- C++ -*----------------------------------*\
| =========                 |                                                 |
| \\      /  F ield         | OpenFOAM: The Open Source CFD Toolbox           |
|  \\    /   O peration     | Version:  5.x                                   |
|   \\  /    A nd           | Web:      www.OpenFOAM.org                      |
|    \\/     M anipulation  |                                                 |
\*---------------------------------------------------------------------------*/
FoamFile
{
    version     2.0;
    format      ascii;
    class       volScalarField;
    location    "2.6";
    object      T;
}
// * * * * * * * * * * * * * * * * * * * * * * * * * * * * * * * * * * * * * //

dimensions      [0 0 0 1 0 0 0];

internalField   nonuniform List<scalar> 
2048
(
9.84609
9.84671
9.84792
9.84972
9.85208
9.85498
9.85835
9.86214
9.8663
9.87073
9.87537
9.88014
9.88495
9.88973
9.89443
9.89898
9.90335
9.9075
9.9114
9.91505
9.91844
9.92156
9.92443
9.92705
9.92943
9.9316
9.93356
9.93534
9.93694
9.93839
9.9397
9.94088
9.94194
9.9429
9.94377
9.94454
9.94524
9.94587
9.94644
9.94695
9.9474
9.94781
9.94817
9.94849
9.94878
9.94903
9.94926
9.94946
9.94964
9.9498
9.94994
9.95007
9.95018
9.95028
9.95036
9.95044
9.95051
9.95057
9.95062
9.95066
9.95069
9.95071
9.95073
9.95074
9.54451
9.54632
9.54993
9.55527
9.56229
9.57087
9.58089
9.59217
9.60451
9.61769
9.63147
9.64562
9.65989
9.67409
9.68802
9.70152
9.71446
9.72674
9.7383
9.74909
9.7591
9.76833
9.77679
9.78453
9.79157
9.79796
9.80375
9.80899
9.81372
9.81799
9.82184
9.82532
9.82846
9.83128
9.83383
9.83613
9.83819
9.84005
9.84171
9.84321
9.84454
9.84574
9.84681
9.84776
9.8486
9.84936
9.85002
9.85062
9.85115
9.85162
9.85203
9.8524
9.85273
9.85302
9.85328
9.8535
9.8537
9.85387
9.85402
9.85414
9.85423
9.8543
9.85435
9.85438
9.25475
9.25773
9.26365
9.27244
9.28399
9.29812
9.31462
9.3332
9.35354
9.37526
9.39796
9.42126
9.44475
9.4681
9.49098
9.51313
9.53434
9.55445
9.57336
9.591
9.60733
9.62239
9.63618
9.64878
9.66023
9.67063
9.68004
9.68856
9.69624
9.70318
9.70944
9.71509
9.72018
9.72477
9.72891
9.73264
9.73599
9.73901
9.74171
9.74414
9.74631
9.74825
9.74998
9.75152
9.7529
9.75412
9.7552
9.75616
9.75702
9.75778
9.75846
9.75906
9.75959
9.76006
9.76048
9.76084
9.76117
9.76144
9.76168
9.76187
9.76203
9.76215
9.76222
9.76226
8.97561
8.97972
8.98791
9.00008
9.01607
9.03566
9.05856
9.08436
9.1126
9.14276
9.17427
9.20658
9.23913
9.27144
9.30306
9.33363
9.36287
9.39055
9.41652
9.44072
9.46311
9.48371
9.50257
9.51976
9.53539
9.54957
9.56239
9.57398
9.58444
9.59388
9.6024
9.61008
9.61701
9.62325
9.62888
9.63395
9.63852
9.64262
9.6463
9.6496
9.65255
9.65519
9.65754
9.65964
9.6615
9.66316
9.66463
9.66594
9.6671
9.66813
9.66905
9.66986
9.67058
9.67122
9.67179
9.67229
9.67273
9.67311
9.67343
9.6737
9.67391
9.67407
9.67418
9.67423
8.70608
8.71131
8.72172
8.73721
8.7576
8.78261
8.81186
8.84486
8.88099
8.91958
8.95987
9.00114
9.04268
9.08383
9.12404
9.16285
9.19989
9.2349
9.26769
9.29818
9.32635
9.35221
9.37586
9.3974
9.41696
9.43467
9.45069
9.46515
9.4782
9.48997
9.50059
9.51016
9.5188
9.52659
9.53361
9.53993
9.54562
9.55074
9.55533
9.55944
9.56312
9.56641
9.56933
9.57194
9.57426
9.57632
9.57815
9.57978
9.58122
9.5825
9.58364
9.58465
9.58555
9.58635
9.58705
9.58768
9.58822
9.5887
9.5891
9.58944
9.5897
9.58991
9.59004
9.59011
8.44532
8.45165
8.46425
8.48302
8.50776
8.53818
8.5738
8.61403
8.65811
8.70518
8.7543
8.80455
8.85505
8.90499
8.95368
9.00058
9.04524
9.08735
9.12672
9.16324
9.19691
9.22778
9.25595
9.28157
9.30479
9.32581
9.34479
9.36192
9.37737
9.3913
9.40386
9.41519
9.42541
9.43463
9.44293
9.45042
9.45716
9.46321
9.46864
9.47351
9.47786
9.48174
9.4852
9.48828
9.49102
9.49345
9.49561
9.49752
9.49922
9.50073
9.50207
9.50327
9.50433
9.50527
9.5061
9.50684
9.50749
9.50805
9.50853
9.50893
9.50925
9.50949
9.50965
9.50974
8.19264
8.20003
8.21478
8.23679
8.26587
8.30169
8.34373
8.39127
8.44341
8.49908
8.55714
8.61645
8.67593
8.73464
8.79175
8.84661
8.89872
8.94774
8.99344
9.03574
9.07464
9.11023
9.14265
9.17208
9.19873
9.22281
9.24454
9.26413
9.28178
9.2977
9.31205
9.32499
9.33666
9.3472
9.35669
9.36525
9.37295
9.37987
9.38608
9.39164
9.39661
9.40104
9.40499
9.4085
9.41161
9.41438
9.41684
9.41901
9.42095
9.42266
9.42419
9.42555
9.42675
9.42783
9.42878
9.42963
9.43037
9.43102
9.43157
9.43203
9.4324
9.43268
9.43286
9.43296
7.94743
7.95587
7.97272
7.99792
8.03131
8.07254
8.12107
8.17605
8.23641
8.30085
8.36801
8.4365
8.50504
8.57252
8.638
8.70072
8.76013
8.81585
8.86766
8.91548
8.95934
8.99938
9.03578
9.06876
9.09858
9.12548
9.14973
9.17158
9.19125
9.20898
9.22496
9.23937
9.25238
9.26412
9.27471
9.28425
9.29284
9.30055
9.30748
9.31367
9.3192
9.32414
9.32853
9.33243
9.33589
9.33896
9.34168
9.34409
9.34624
9.34814
9.34983
9.35134
9.35268
9.35387
9.35493
9.35588
9.35671
9.35743
9.35805
9.35857
9.35899
9.3593
9.35951
9.35962
7.70923
7.71867
7.73756
7.76589
7.80354
7.85021
7.9053
7.96787
8.03666
8.11011
8.18657
8.26441
8.34212
8.41841
8.49221
8.56269
8.62925
8.69148
8.74917
8.80225
8.85081
8.89502
8.93512
8.97139
9.00412
9.03362
9.06017
9.08406
9.10557
9.12494
9.1424
9.15816
9.17239
9.18523
9.19681
9.20725
9.21665
9.2251
9.23267
9.23944
9.24549
9.25088
9.25566
9.25992
9.26368
9.26702
9.26998
9.27261
9.27494
9.27701
9.27884
9.28048
9.28194
9.28324
9.28441
9.28544
9.28635
9.28715
9.28783
9.28841
9.28887
9.28922
9.28946
9.28958
7.47763
7.48803
7.50888
7.54024
7.5821
7.6342
7.69595
7.7663
7.84377
7.9265
8.01253
8.09991
8.18691
8.27205
8.35415
8.43231
8.50586
8.57441
8.63774
8.69583
8.74881
8.79691
8.84044
8.87974
8.91514
8.94699
8.97563
9.00138
9.02453
9.04539
9.06419
9.08116
9.09648
9.11033
9.12282
9.13408
9.14422
9.15333
9.16149
9.16879
9.1753
9.1811
9.18625
9.19081
9.19485
9.19843
9.2016
9.20441
9.2069
9.20912
9.21108
9.21284
9.21441
9.2158
9.21706
9.21817
9.21916
9.22002
9.22077
9.2214
9.22191
9.22229
9.22255
9.22268
7.25233
7.26362
7.28632
7.3206
7.36656
7.42408
7.49258
7.57093
7.65738
7.74973
7.84561
7.94277
8.0392
8.13325
8.22362
8.30934
8.38975
8.46442
8.53316
8.59598
8.6531
8.70481
8.7515
8.79356
8.83139
8.86537
8.89589
8.92329
8.94793
8.9701
8.9901
9.00816
9.02448
9.03924
9.05256
9.06456
9.07537
9.08508
9.09378
9.10156
9.10849
9.11465
9.12012
9.12496
9.12924
9.13303
9.13638
9.13935
9.14199
9.14433
9.14641
9.14826
9.14992
9.15141
9.15274
9.15393
9.15499
9.15592
9.15673
9.15741
9.15796
9.15838
9.15866
9.1588
7.03307
7.04518
7.06959
7.10661
7.15655
7.21944
7.29479
7.38138
7.47716
7.5795
7.68558
7.79276
7.89877
8.00177
8.10038
8.19358
8.28068
8.36127
8.43517
8.50246
8.56342
8.61847
8.66804
8.71261
8.75263
8.78853
8.82072
8.84959
8.87553
8.89888
8.91994
8.93898
8.9562
8.97177
8.98584
8.99853
9.00995
9.0202
9.02939
9.03759
9.0449
9.05139
9.05713
9.06221
9.0667
9.07067
9.07418
9.07729
9.08005
9.0825
9.08467
9.08662
9.08836
9.08992
9.09133
9.09259
9.09371
9.0947
9.09557
9.0963
9.09689
9.09735
9.09765
9.09781
6.81967
6.83249
6.85844
6.89801
6.95173
7.0199
7.10219
7.19729
7.30281
7.41557
7.53222
7.6497
7.76543
7.87742
7.98422
8.08479
8.17842
8.26471
8.34353
8.415
8.47953
8.53761
8.58981
8.63664
8.67862
8.71622
8.74989
8.78006
8.80714
8.83151
8.85351
8.87342
8.89145
8.90776
8.92251
8.93581
8.94778
8.95852
8.96815
8.97674
8.98438
8.99115
8.99714
9.00243
9.00709
9.01122
9.01486
9.01809
9.02095
9.02349
9.02575
9.02777
9.02958
9.03121
9.03268
9.034
9.03519
9.03624
9.03716
9.03794
9.03858
9.03907
9.0394
9.03956
6.61197
6.62541
6.65268
6.69453
6.75179
6.82511
6.9144
7.01832
7.13405
7.25772
7.38535
7.5134
7.63899
7.76
7.87493
7.98273
8.08272
8.17452
8.258
8.33337
8.40115
8.46199
8.51654
8.56539
8.60911
8.64821
8.68318
8.71447
8.74253
8.76779
8.79061
8.81129
8.83004
8.84703
8.86239
8.87624
8.88871
8.8999
8.90991
8.91885
8.92679
8.93381
8.94001
8.94547
8.95029
8.95454
8.9583
8.96162
8.96457
8.96718
8.96951
8.9716
8.97347
8.97515
8.97668
8.97806
8.9793
8.98041
8.98139
8.98222
8.9829
8.98342
8.98377
8.98395
6.4099
6.42381
6.45217
6.49597
6.55646
6.63472
6.73105
6.84412
6.97062
7.10576
7.2448
7.38371
7.51928
7.6493
7.77228
7.88718
7.99335
8.09045
8.17832
8.25728
8.32802
8.39133
8.44797
8.49861
8.54387
8.58428
8.62036
8.65262
8.68151
8.70752
8.73104
8.75241
8.77181
8.7894
8.80532
8.81967
8.83259
8.84417
8.85454
8.86378
8.87199
8.87923
8.8856
8.89121
8.89615
8.9005
8.90435
8.90775
8.91077
8.91345
8.91583
8.91797
8.91989
8.92162
8.9232
8.92464
8.92593
8.9271
8.92812
8.92901
8.92973
8.93029
8.93066
8.93085
6.21338
6.22762
6.25677
6.30215
6.36547
6.44839
6.55176
6.67439
6.81231
6.95954
7.11044
7.26049
7.40614
7.54512
7.67604
7.79788
7.91006
8.01225
8.10427
8.1865
8.25986
8.32536
8.38385
8.43606
8.48266
8.5242
8.56123
8.59429
8.62387
8.65049
8.67463
8.6966
8.71659
8.73473
8.75115
8.76595
8.77926
8.79121
8.80189
8.8114
8.81984
8.82727
8.83379
8.83951
8.84455
8.84898
8.8529
8.85637
8.85944
8.86217
8.8646
8.86677
8.86873
8.87051
8.87213
8.87362
8.87497
8.87618
8.87726
8.87819
8.87896
8.87955
8.87995
8.88015
6.02238
6.03678
6.06643
6.11294
6.17859
6.2658
6.37616
6.50877
6.65892
6.81893
6.98216
7.14363
7.2994
7.44726
7.586
7.7146
7.83259
7.93969
8.03558
8.12075
8.19641
8.26382
8.32391
8.37747
8.42523
8.46774
8.50557
8.53929
8.56942
8.59653
8.62117
8.64368
8.66421
8.68285
8.69972
8.71493
8.7286
8.74086
8.75182
8.76158
8.77023
8.77782
8.78445
8.79026
8.79536
8.79986
8.80384
8.80735
8.81047
8.81323
8.81569
8.81789
8.81988
8.82169
8.82336
8.82489
8.82629
8.82756
8.82869
8.82967
8.83049
8.83112
8.83154
8.83175
5.83689
5.85129
5.88107
5.92823
5.99564
6.08663
6.20384
6.34695
6.51029
6.68385
6.85985
7.03302
7.19891
7.35549
7.50191
7.63707
7.76068
7.87254
7.97204
8.05977
8.13738
8.20645
8.2679
8.32262
8.37139
8.41471
8.45318
8.48743
8.51798
8.54545
8.5705
8.5935
8.61452
8.63361
8.65091
8.66648
8.68046
8.69301
8.70421
8.71419
8.72302
8.73074
8.73746
8.74333
8.74848
8.75303
8.75704
8.76059
8.76373
8.76652
8.76901
8.77123
8.77323
8.77508
8.77678
8.77835
8.7798
8.78111
8.7823
8.78333
8.7842
8.78487
8.78532
8.78554
5.65692
5.67113
5.70069
5.74794
5.81643
5.91056
6.03438
6.18855
6.36633
6.55424
6.74341
6.92857
7.10451
7.26958
7.42356
7.56504
7.69405
7.81059
7.91343
8.00331
8.0825
8.15298
8.21558
8.27127
8.32091
8.36489
8.40387
8.43853
8.46936
8.49706
8.52244
8.54591
8.56737
8.58688
8.60457
8.62045
8.63471
8.64751
8.65894
8.6691
8.6781
8.68594
8.69271
8.6986
8.70379
8.70836
8.7124
8.71597
8.71914
8.72194
8.72444
8.72667
8.72869
8.73055
8.73229
8.73391
8.73539
8.73676
8.73799
8.73908
8.74
8.74071
8.74118
8.74142
5.48248
5.49632
5.52528
5.57204
5.64082
5.73729
5.86732
6.03317
6.227
6.4301
6.63273
6.83022
7.01604
7.18929
7.35071
7.49824
7.63241
7.75362
7.85955
7.9511
8.03148
8.10317
8.16672
8.22318
8.27359
8.3181
8.35744
8.39243
8.42341
8.4512
8.47682
8.50075
8.52264
8.54252
8.56057
8.57674
8.59122
8.60426
8.61588
8.62621
8.63538
8.6433
8.65008
8.65598
8.66119
8.66577
8.66981
8.67341
8.67658
8.67939
8.68189
8.68412
8.68614
8.68802
8.6898
8.69145
8.69298
8.69439
8.69568
8.69682
8.6978
8.69855
8.69905
8.69929
5.31357
5.32687
5.35485
5.40049
5.4687
5.56653
5.70216
5.88037
6.09237
6.31147
6.52768
6.73796
6.93335
7.1143
7.28316
7.43639
7.57545
7.70147
7.81021
7.90288
7.98402
8.05679
8.12108
8.17813
8.22925
8.27417
8.31373
8.34898
8.37997
8.40769
8.43348
8.45789
8.48019
8.5004
8.51881
8.53522
8.54989
8.56314
8.57492
8.58539
8.59473
8.60272
8.60949
8.61536
8.62057
8.62514
8.62918
8.63279
8.63597
8.63877
8.64128
8.6435
8.6455
8.6474
8.64921
8.6509
8.65246
8.65393
8.65526
8.65646
8.65751
8.6583
8.65882
8.65907
5.15022
5.16281
5.18944
5.23334
5.30003
5.39801
5.53834
5.72959
5.96265
6.19844
6.42805
6.65179
6.85629
7.04428
7.22073
7.37922
7.52279
7.654
7.76527
7.85839
7.93981
8.01364
8.07846
8.13588
8.18774
8.23291
8.27255
8.30804
8.33891
8.36637
8.39225
8.41723
8.4399
8.46039
8.47918
8.49578
8.51057
8.52405
8.53595
8.54654
8.55607
8.56411
8.57081
8.57662
8.58183
8.58639
8.59041
8.59404
8.5972
8.59999
8.6025
8.6047
8.60668
8.60858
8.61044
8.61216
8.61376
8.61527
8.61665
8.61791
8.61904
8.61988
8.62042
8.62067
4.99243
5.00415
5.02909
5.07062
5.13478
5.23151
5.37526
5.58012
5.83826
6.09113
6.33353
6.57184
6.7847
6.97879
7.16332
7.32645
7.47401
7.61114
7.7246
7.81733
7.8985
7.97352
8.03865
8.09621
8.1489
8.19417
8.23371
8.26948
8.3001
8.32708
8.35295
8.37866
8.40168
8.42237
8.44158
8.45831
8.47317
8.4869
8.49887
8.50955
8.51931
8.52737
8.53396
8.53968
8.5449
8.54942
8.55342
8.55706
8.56021
8.56297
8.56548
8.56765
8.5696
8.57149
8.5734
8.57516
8.57678
8.57835
8.57977
8.58109
8.5823
8.5832
8.58375
8.58401
4.84018
4.85091
4.87384
4.9124
4.97299
5.06687
5.21224
5.43104
5.71993
5.98974
6.24363
6.49833
6.71842
6.91727
7.11091
7.2778
7.42859
7.57291
7.68813
7.77943
7.85973
7.93633
8.00148
8.05885
8.11263
8.15781
8.19703
8.23323
8.26342
8.28966
8.31541
8.3421
8.36541
8.3862
8.40594
8.42271
8.43755
8.45159
8.46359
8.4743
8.48438
8.49244
8.49885
8.50444
8.50969
8.51416
8.5181
8.52178
8.52489
8.52762
8.53014
8.53228
8.53416
8.53605
8.53803
8.53981
8.54145
8.54309
8.54454
8.54591
8.54724
8.54818
8.54875
8.549
4.69346
4.70308
4.72372
4.75878
4.81476
4.90398
5.04859
5.28107
5.6088
5.89447
6.15758
6.43171
6.65729
6.85901
7.06363
7.233
7.38585
7.53944
7.65579
7.74436
7.82306
7.90198
7.96677
8.02353
8.07888
8.12369
8.16229
8.19922
8.22878
8.25394
8.27943
8.30753
8.33101
8.35175
8.37219
8.3889
8.4036
8.41806
8.43001
8.44068
8.45121
8.45923
8.46538
8.47079
8.47612
8.48051
8.48437
8.48813
8.49119
8.49385
8.49641
8.49849
8.5003
8.50216
8.50425
8.50604
8.50769
8.5094
8.51088
8.51229
8.51377
8.51476
8.51533
8.51557
4.55224
4.56065
4.57879
4.60985
4.66025
4.74287
4.88361
5.12845
5.5066
5.80555
6.07424
6.3727
6.60115
6.80302
7.02183
7.19176
7.34492
7.51105
7.62756
7.71179
7.78799
7.87052
7.93437
7.98989
8.04764
8.09168
8.12924
8.16743
8.19609
8.21978
8.24479
8.27492
8.29841
8.31885
8.34029
8.35678
8.37117
8.38626
8.39804
8.40857
8.41975
8.42768
8.43346
8.43864
8.44413
8.44841
8.45215
8.45603
8.45902
8.4616
8.46423
8.46624
8.46793
8.46976
8.47199
8.47378
8.47542
8.47724
8.47872
8.48016
8.48183
8.48287
8.48342
8.48365
4.41645
4.42359
4.43905
4.46573
4.50965
4.58367
4.71664
4.97073
5.41588
5.7232
5.99191
6.32247
6.54983
6.748
6.98619
7.15381
7.30464
7.48829
7.60343
7.68137
7.75391
7.8421
7.90413
7.95755
8.01899
8.06165
8.0976
8.13788
8.16529
8.187
8.21122
8.24435
8.26751
8.28732
8.31024
8.32627
8.34012
8.35616
8.3676
8.37782
8.38997
8.39771
8.40301
8.40789
8.41366
8.41778
8.42135
8.42543
8.42831
8.43076
8.43352
8.43543
8.43698
8.43875
8.4412
8.44297
8.44457
8.44652
8.44799
8.44944
8.45136
8.45243
8.45295
8.45316
4.28602
4.29185
4.30452
4.32652
4.3632
4.42666
4.54719
4.80446
5.34028
5.64758
5.9082
6.28279
6.50311
6.69215
6.95783
7.1189
7.26348
7.47209
7.58338
7.65272
7.72007
7.81705
7.87593
7.92599
7.99313
8.0335
8.06701
8.11069
8.13632
8.15548
8.17842
8.21594
8.23826
8.25693
8.28207
8.29728
8.31026
8.32777
8.3386
8.34828
8.36187
8.36927
8.37395
8.37842
8.38468
8.38855
8.39187
8.39629
8.39899
8.40127
8.40425
8.40603
8.40739
8.40907
8.41183
8.41353
8.41505
8.41721
8.41861
8.42004
8.42231
8.42339
8.42386
8.42404
4.16087
4.16538
4.17519
4.19232
4.22118
4.27231
4.37504
4.62487
5.28488
5.57872
5.81972
6.25625
6.46076
6.63308
6.93844
7.08673
7.2194
7.46379
7.56732
7.62549
7.68552
7.79592
7.84962
7.89455
7.97039
8.00709
8.03702
8.08602
8.1091
8.12506
8.14599
8.1899
8.21056
8.22741
8.25589
8.26974
8.28139
8.30112
8.31097
8.31975
8.33547
8.34228
8.34618
8.35013
8.35715
8.36065
8.36361
8.36856
8.371
8.37303
8.37636
8.37795
8.37909
8.38061
8.38385
8.38541
8.38679
8.38926
8.39054
8.39188
8.39464
8.39567
8.39608
8.39623
4.04089
4.04408
4.05102
4.06319
4.08387
4.12122
4.20048
4.42541
5.25666
5.51645
5.72189
6.24656
6.42245
6.56761
6.93054
7.05704
7.1697
7.46539
7.55504
7.59933
7.64909
7.77956
7.82507
7.86242
7.9513
7.98231
8.00706
8.06421
8.08357
8.09565
8.11344
8.16659
8.18435
8.19841
8.23185
8.24357
8.25324
8.27633
8.28463
8.29202
8.31084
8.31669
8.31964
8.32289
8.33109
8.33402
8.33647
8.34223
8.34428
8.34596
8.34982
8.35115
8.35201
8.35331
8.35721
8.35855
8.3597
8.36262
8.36371
8.36487
8.3683
8.36923
8.36954
8.36965
3.92597
3.92785
3.93196
3.93919
3.95153
3.97415
4.02455
4.19719
5.265
5.46027
5.60862
6.25887
6.38771
6.49155
6.93759
7.02951
7.11086
7.47967
7.5461
7.57399
7.60928
7.76917
7.80211
7.82851
7.93664
7.95901
7.97642
8.04569
8.05961
8.06719
8.08014
8.1465
8.15952
8.16949
8.21022
8.21868
8.22552
8.25354
8.25951
8.26481
8.28811
8.29241
8.29426
8.29654
8.3065
8.30861
8.31033
8.3173
8.31877
8.31994
8.32461
8.32556
8.3261
8.32704
8.33191
8.33289
8.33371
8.33727
8.33805
8.33891
8.34328
8.344
8.34419
8.34426
3.81596
3.81658
3.81794
3.82032
3.8244
3.83195
3.84941
3.92834
5.32232
5.4092
5.47192
6.30012
6.35591
6.39948
6.96437
7.00379
7.03835
7.51043
7.53975
7.54935
7.56417
7.76643
7.78053
7.79147
7.92748
7.93702
7.9442
8.03113
8.03707
8.03967
8.04528
8.13031
8.13597
8.1401
8.19137
8.19498
8.19782
8.23301
8.23555
8.23778
8.26746
8.26934
8.26997
8.27092
8.28344
8.28433
8.28505
8.29378
8.2944
8.29488
8.30072
8.30113
8.30131
8.30172
8.30795
8.30837
8.30871
8.3132
8.31353
8.31391
8.31958
8.31991
8.31998
8.32
)
;

boundaryField
{
    left
    {
        type            zeroGradient;
    }
    right
    {
        type            zeroGradient;
    }
    interface
    {
        type            fixedValue;
        value           nonuniform List<scalar> 
64
(
3.76217
3.76217
3.76217
3.76217
3.76217
3.76217
3.76217
3.76217
5.38488
5.38488
5.38488
6.34069
6.34069
6.34069
6.99135
6.99135
6.99135
7.53717
7.53717
7.53717
7.53717
7.77007
7.77007
7.77007
7.92634
7.92634
7.92634
8.02615
8.02615
8.02615
8.02615
8.1245
8.1245
8.1245
8.18343
8.18343
8.18343
8.22385
8.22385
8.22385
8.2581
8.2581
8.2581
8.2581
8.27248
8.27248
8.27248
8.2825
8.2825
8.2825
8.2892
8.2892
8.2892
8.2892
8.29639
8.29639
8.29639
8.30155
8.30155
8.30155
8.30814
8.30814
8.30814
8.30814
)
;
    }
    bottom
    {
        type            fixedValue;
        value           uniform 10;
    }
    defaultFaces
    {
        type            empty;
    }
}


// ************************************************************************* //
