/*--------------------------------*- C++ -*----------------------------------*\
| =========                 |                                                 |
| \\      /  F ield         | OpenFOAM: The Open Source CFD Toolbox           |
|  \\    /   O peration     | Version:  5.x                                   |
|   \\  /    A nd           | Web:      www.OpenFOAM.org                      |
|    \\/     M anipulation  |                                                 |
\*---------------------------------------------------------------------------*/
FoamFile
{
    version     2.0;
    format      ascii;
    class       volScalarField;
    location    "4.1";
    object      T;
}
// * * * * * * * * * * * * * * * * * * * * * * * * * * * * * * * * * * * * * //

dimensions      [0 0 0 1 0 0 0];

internalField   nonuniform List<scalar> 
2048
(
9.85231
9.85298
9.85431
9.85629
9.85889
9.86207
9.86579
9.86999
9.87459
9.87952
9.88469
9.89002
9.89543
9.90083
9.90616
9.91135
9.91636
9.92115
9.92569
9.92996
9.93394
9.93765
9.94107
9.94423
9.94712
9.94978
9.9522
9.95441
9.95643
9.95827
9.95995
9.96147
9.96286
9.96412
9.96527
9.96632
9.96727
9.96813
9.96892
9.96963
9.97027
9.97084
9.97136
9.97183
9.97225
9.97263
9.97297
9.97328
9.97355
9.9738
9.97402
9.97422
9.97439
9.97455
9.97469
9.97481
9.97492
9.97502
9.9751
9.97516
9.97522
9.97526
9.97528
9.97529
9.56284
9.56483
9.56878
9.57464
9.58236
9.59181
9.60285
9.61531
9.62898
9.64362
9.65898
9.67481
9.69085
9.70688
9.72269
9.73809
9.75293
9.76711
9.78054
9.79316
9.80495
9.8159
9.82602
9.83534
9.84389
9.85172
9.85887
9.8654
9.87135
9.87677
9.88171
9.88621
9.89031
9.89404
9.89743
9.90052
9.90332
9.90587
9.90817
9.91026
9.91215
9.91385
9.91539
9.91677
9.91801
9.91913
9.92013
9.92103
9.92184
9.92256
9.92321
9.92379
9.92431
9.92478
9.92519
9.92556
9.92588
9.92616
9.92639
9.92659
9.92674
9.92686
9.92694
9.92698
9.28452
9.28779
9.29428
9.30392
9.31661
9.33215
9.35033
9.37086
9.39337
9.41749
9.44279
9.46885
9.49524
9.52159
9.54755
9.57282
9.59716
9.62038
9.64235
9.66299
9.68224
9.7001
9.71661
9.73179
9.74572
9.75846
9.7701
9.78072
9.79039
9.79921
9.80724
9.81455
9.82121
9.82727
9.83279
9.83781
9.84237
9.84651
9.85026
9.85365
9.85672
9.85949
9.86198
9.86423
9.86625
9.86806
9.86969
9.87115
9.87246
9.87363
9.87468
9.87563
9.87647
9.87723
9.8779
9.8785
9.87902
9.87947
9.87985
9.88017
9.88043
9.88062
9.88074
9.88081
9.01613
9.02063
9.0296
9.04294
9.0605
9.08204
9.10725
9.13572
9.16697
9.20044
9.23554
9.27166
9.30822
9.34468
9.38055
9.41543
9.44897
9.48094
9.51114
9.53946
9.56586
9.59032
9.61289
9.63364
9.65266
9.67005
9.68592
9.70039
9.71358
9.72559
9.73652
9.74648
9.75555
9.76381
9.77133
9.77816
9.78438
9.79002
9.79513
9.79975
9.80393
9.8077
9.81109
9.81415
9.81689
9.81936
9.82157
9.82355
9.82533
9.82693
9.82836
9.82964
9.8308
9.83182
9.83274
9.83355
9.83426
9.83488
9.8354
9.83584
9.83619
9.83645
9.83662
9.83671
8.75662
8.76234
8.77374
8.79071
8.81307
8.84054
8.87273
8.90911
8.94906
8.99185
9.0367
9.08282
9.12945
9.17587
9.22149
9.26576
9.30828
9.34871
9.38685
9.42256
9.45579
9.48654
9.51488
9.54089
9.56471
9.58647
9.60632
9.6244
9.64087
9.65587
9.66953
9.68196
9.69329
9.7036
9.71299
9.72153
9.72929
9.73634
9.74272
9.7485
9.75371
9.75842
9.76265
9.76646
9.76988
9.77295
9.7757
9.77818
9.78039
9.78238
9.78417
9.78577
9.7872
9.78848
9.78963
9.79064
9.79153
9.7923
9.79296
9.79351
9.79394
9.79427
9.79449
9.7946
8.50516
8.51207
8.52585
8.5464
8.57351
8.60688
8.64604
8.69036
8.73905
8.7912
8.84583
8.90195
8.95861
9.01493
9.07016
9.12366
9.17494
9.22361
9.26942
9.31222
9.35198
9.38871
9.4225
9.45348
9.48181
9.50766
9.53122
9.55268
9.57221
9.58999
9.60617
9.62091
9.63434
9.64657
9.65771
9.66784
9.67704
9.6854
9.69297
9.69982
9.706
9.71157
9.71659
9.72109
9.72514
9.72877
9.73202
9.73494
9.73756
9.73991
9.74202
9.74391
9.74561
9.74713
9.74848
9.74969
9.75074
9.75166
9.75245
9.7531
9.75362
9.75401
9.75427
9.7544
8.26104
8.26911
8.28523
8.3093
8.34113
8.38039
8.42655
8.47887
8.53639
8.59802
8.66253
8.72872
8.79543
8.86161
8.92637
8.98897
9.04881
9.10549
9.15871
9.20833
9.25431
9.29671
9.33565
9.3713
9.40385
9.43352
9.46054
9.48512
9.50748
9.52783
9.54636
9.56324
9.57861
9.59262
9.60538
9.61699
9.62754
9.63711
9.64579
9.65363
9.66071
9.66708
9.67281
9.67796
9.68258
9.68672
9.69044
9.69377
9.69675
9.69944
9.70184
9.704
9.70594
9.70768
9.70923
9.71061
9.71183
9.71289
9.71379
9.71454
9.71514
9.7156
9.7159
9.71605
8.02369
8.03289
8.05129
8.07882
8.11532
8.16046
8.21367
8.2741
8.34062
8.41189
8.48644
8.56281
8.63964
8.71569
8.78992
8.86149
8.92975
8.99421
9.05459
9.11074
9.16265
9.21042
9.2542
9.29421
9.3307
9.36392
9.39413
9.42159
9.44657
9.46929
9.48997
9.50882
9.526
9.54165
9.55591
9.56889
9.58068
9.59138
9.60108
9.60984
9.61774
9.62486
9.63125
9.63699
9.64213
9.64674
9.65087
9.65457
9.65789
9.66087
9.66355
9.66596
9.66812
9.67006
9.67179
9.67334
9.6747
9.67589
9.67691
9.67775
9.67843
9.67894
9.67928
9.67946
7.79265
7.80294
7.82354
7.85445
7.89556
7.94658
8.00692
8.07561
8.15132
8.23245
8.31724
8.40397
8.49101
8.57696
8.66062
8.74107
8.81757
8.88962
8.95691
9.01931
9.07685
9.12967
9.17799
9.22207
9.2622
9.29869
9.33185
9.36196
9.38933
9.41422
9.43688
9.45753
9.47636
9.49353
9.50918
9.52342
9.53637
9.54811
9.55875
9.56836
9.57702
9.58481
9.59181
9.59808
9.60369
9.60872
9.61323
9.61727
9.62089
9.62415
9.62707
9.6297
9.63206
9.63418
9.63609
9.63779
9.63929
9.6406
9.64172
9.64266
9.64342
9.64398
9.64436
9.64455
7.56756
7.57888
7.60159
7.63577
7.68141
7.7383
7.80584
7.88296
7.96811
8.05937
8.15467
8.25194
8.34933
8.44522
8.53829
8.62751
8.7121
8.79153
8.86547
8.93385
8.99671
9.05428
9.10683
9.15468
9.19818
9.23768
9.27353
9.30606
9.3356
9.36246
9.38693
9.40923
9.42958
9.44815
9.46507
9.48048
9.49449
9.5072
9.5187
9.52909
9.53845
9.54685
9.55439
9.56115
9.56719
9.5726
9.57744
9.58178
9.58567
9.58917
9.59231
9.59514
9.59769
9.59998
9.60204
9.60388
9.60551
9.60694
9.60817
9.60919
9.61002
9.61064
9.61105
9.61126
7.34814
7.36041
7.38511
7.42241
7.47247
7.53519
7.61001
7.69577
7.79066
7.89239
7.99848
8.10653
8.2144
8.32029
8.42274
8.52064
8.61316
8.69976
8.78011
8.85416
8.92205
8.98405
9.04053
9.09186
9.13846
9.1807
9.21899
9.25371
9.28522
9.31387
9.33997
9.36378
9.38552
9.40537
9.42347
9.43995
9.45493
9.46852
9.48082
9.49193
9.50192
9.51089
9.51892
9.5261
9.53253
9.53827
9.54341
9.54802
9.55215
9.55587
9.55921
9.56221
9.56492
9.56737
9.56957
9.57155
9.5733
9.57484
9.57616
9.57727
9.57817
9.57884
9.57929
9.57952
7.13415
7.14731
7.17383
7.21408
7.2684
7.33687
7.41905
7.51368
7.61865
7.73123
7.84846
7.96755
8.08606
8.20199
8.31379
8.42027
8.52057
8.61412
8.70062
8.78006
8.85265
8.91878
8.97887
9.0334
9.08282
9.12756
9.16806
9.20475
9.23802
9.26828
9.29585
9.32103
9.34404
9.36506
9.38424
9.40171
9.41759
9.43199
9.44502
9.45678
9.46735
9.47682
9.48529
9.49286
9.49962
9.50566
9.51107
9.51591
9.52026
9.52416
9.52767
9.53084
9.5337
9.53628
9.53862
9.54071
9.54258
9.54423
9.54565
9.54684
9.5478
9.54852
9.549
9.54925
6.92547
6.93939
6.96755
7.01051
7.06887
7.143
7.2326
7.33636
7.45183
7.57569
7.70443
7.83483
7.96413
8.09015
8.21125
8.3262
8.43411
8.53442
8.6268
8.71132
8.7883
8.85823
8.92165
8.97909
9.03107
9.07806
9.12055
9.15899
9.19384
9.22551
9.25441
9.28083
9.305
9.32709
9.34726
9.36564
9.38234
9.39749
9.41119
9.42354
9.43464
9.44457
9.45343
9.46134
9.46839
9.47469
9.48032
9.48537
9.4899
9.49397
9.49763
9.50094
9.50393
9.50664
9.5091
9.51131
9.51329
9.51504
9.51655
9.51782
9.51884
9.51961
9.52013
9.52039
6.72197
6.73654
6.76611
6.81148
6.87361
6.95322
7.0503
7.16349
7.28992
7.42556
7.56624
7.70824
7.84846
7.98459
8.11494
8.23824
8.3536
8.46044
8.55844
8.64772
8.72875
8.80217
8.86862
8.92871
8.983
9.03202
9.07627
9.11626
9.15249
9.18542
9.21549
9.24303
9.26826
9.29134
9.31243
9.33163
9.34909
9.36492
9.37923
9.39213
9.4037
9.41404
9.42325
9.43144
9.43875
9.44527
9.4511
9.45633
9.46101
9.46523
9.46902
9.47245
9.47556
9.47839
9.48095
9.48328
9.48536
9.4872
9.4888
9.49015
9.49123
9.49205
9.4926
9.49288
6.52361
6.53868
6.56939
6.61684
6.68238
6.76724
6.8718
6.99477
7.13273
7.28071
7.43376
7.58764
7.73891
7.88515
8.02467
8.15618
8.27882
8.39199
8.49534
8.58905
8.67379
8.75038
8.81957
8.88203
8.9384
8.98922
9.03503
9.07638
9.11381
9.14783
9.17894
9.20749
9.23369
9.25768
9.27961
9.29958
9.31773
9.33418
9.34905
9.36244
9.37444
9.38515
9.39465
9.4031
9.41062
9.41733
9.42333
9.4287
9.43353
9.43786
9.44177
9.4453
9.44851
9.45144
9.45411
9.45654
9.45872
9.46066
9.46234
9.46376
9.46491
9.46578
9.46636
9.46665
6.33037
6.34577
6.37732
6.42642
6.49494
6.58473
6.69676
6.82988
6.98003
7.141
7.30688
7.47293
7.63535
7.79166
7.94024
8.07982
8.20956
8.32886
8.43728
8.53507
8.62317
8.70261
8.77425
8.83885
8.89708
8.94949
8.99667
9.03919
9.07763
9.11258
9.1446
9.17407
9.20116
9.226
9.2487
9.26937
9.28814
9.30517
9.32055
9.33439
9.34679
9.35781
9.36757
9.37623
9.38392
9.39079
9.39692
9.40243
9.40736
9.4118
9.41581
9.41943
9.42273
9.42575
9.42852
9.43104
9.43332
9.43535
9.43711
9.43861
9.43982
9.44074
9.44135
9.44166
6.14225
6.15782
6.18987
6.24014
6.31111
6.4054
6.52481
6.66853
6.83169
7.00633
7.18552
7.36403
7.53765
7.70393
7.86147
8.00893
8.14559
8.27085
8.38406
8.48556
8.57664
8.65863
8.73245
8.79894
8.85883
8.91264
8.96099
9.00451
9.0438
9.07951
9.11233
9.14264
9.17056
9.19617
9.21958
9.2409
9.26025
9.27779
9.29363
9.30789
9.32065
9.33195
9.34193
9.35074
9.35858
9.36557
9.37182
9.37743
9.38247
9.38699
9.39108
9.39477
9.39814
9.40124
9.4041
9.40672
9.40909
9.41121
9.41306
9.41463
9.4159
9.41687
9.41751
9.41783
5.95928
5.97483
6.007
6.05792
6.1307
6.22896
6.35558
6.51038
6.68756
6.87666
7.06961
7.26087
7.44567
7.62177
7.78813
7.94329
8.08668
8.21777
8.33549
8.44028
8.53394
8.61819
8.69394
8.76209
8.82346
8.87849
8.92784
8.9722
9.01216
9.04848
9.08197
9.11306
9.14175
9.16809
9.19217
9.21407
9.23393
9.25195
9.26822
9.28286
9.29594
9.3075
9.31764
9.32658
9.33453
9.34162
9.34796
9.35366
9.35877
9.36336
9.36751
9.37126
9.37469
9.37787
9.38082
9.38353
9.38599
9.38819
9.39012
9.39176
9.3931
9.39411
9.39478
9.39511
5.7815
5.79684
5.82874
5.87972
5.95358
6.0551
6.18866
6.35512
6.54758
6.75196
6.95908
7.16339
7.35928
7.54497
7.72003
7.88264
8.03257
8.16943
8.29138
8.39899
8.49483
8.58107
8.65849
8.72809
8.79078
8.84687
8.89704
8.9421
8.98257
9.01932
9.05338
9.08522
9.11465
9.14165
9.16636
9.18879
9.20911
9.22757
9.24422
9.25921
9.27261
9.28438
9.29464
9.30366
9.31169
9.31885
9.32526
9.33103
9.33621
9.34086
9.34506
9.34885
9.35233
9.35556
9.3586
9.3614
9.36395
9.36624
9.36825
9.36996
9.37137
9.37242
9.37312
9.37346
5.60897
5.6239
5.65513
5.70553
5.77964
5.88354
6.02359
6.20235
6.41175
6.63227
6.85384
7.07157
7.27837
7.47329
7.65697
7.82676
7.98299
8.12568
8.25158
8.36147
8.45901
8.54703
8.62589
8.69672
8.76064
8.81761
8.86845
8.91409
8.95489
8.99189
9.02641
9.05901
9.08913
9.11675
9.14207
9.16497
9.18569
9.20457
9.22156
9.23686
9.25057
9.26253
9.27286
9.28192
9.29001
9.29722
9.30368
9.30951
9.31473
9.31942
9.32366
9.32749
9.33098
9.33427
9.3374
9.34029
9.34292
9.3453
9.34739
9.34917
9.35065
9.35175
9.35247
9.35282
5.44172
5.45605
5.48621
5.53537
5.6088
5.71403
5.8599
6.05163
6.28018
6.51766
6.75379
6.98542
7.2028
7.40644
7.59877
7.77537
7.93763
8.08639
8.21595
8.32745
8.42621
8.51587
8.59593
8.66777
8.73287
8.79058
8.84189
8.88805
8.92901
8.96604
9.00092
9.03433
9.06512
9.09329
9.11921
9.14252
9.16359
9.18286
9.20015
9.21574
9.22978
9.24189
9.25223
9.26128
9.26942
9.27665
9.28313
9.28902
9.29428
9.29899
9.30327
9.30711
9.31061
9.31395
9.31717
9.32015
9.32286
9.32533
9.3275
9.32935
9.3309
9.33205
9.33279
9.33315
5.27981
5.29337
5.32206
5.3693
5.44103
5.54632
5.69702
5.90241
6.15314
6.40825
6.65874
6.90501
7.13243
7.34409
7.54529
7.72822
7.89613
8.05147
8.18438
8.29669
8.3961
8.48741
8.56843
8.64103
8.70734
8.76561
8.81722
8.86386
8.90481
8.94162
8.97676
9.01109
9.04252
9.07118
9.09772
9.12138
9.14271
9.16238
9.17993
9.19576
9.21016
9.2224
9.23268
9.24169
9.24985
9.25709
9.26358
9.26953
9.27481
9.27953
9.28384
9.28768
9.29117
9.29454
9.29787
9.30093
9.30372
9.30629
9.30852
9.31044
9.31207
9.31328
9.31403
9.31439
5.12326
5.13588
5.16274
5.2074
5.27636
5.3802
5.53436
5.75398
6.0311
6.30421
6.56838
6.83051
7.06714
7.28579
7.49646
7.68502
7.85804
8.02092
8.1568
8.26892
8.36834
8.46149
8.5432
8.61626
8.68395
8.74258
8.79425
8.84146
8.88219
8.91849
8.95376
8.98924
9.02127
9.05032
9.07755
9.10146
9.12295
9.14307
9.16081
9.17684
9.19169
9.20402
9.21417
9.22306
9.23127
9.23848
9.24496
9.25098
9.25626
9.26097
9.26533
9.26914
9.27259
9.27599
9.27946
9.2826
9.28545
9.28813
9.29042
9.29241
9.29414
9.29538
9.29615
9.29651
4.97211
4.98364
5.00832
5.04978
5.11485
5.21553
5.37124
5.6054
5.91486
6.20576
6.48221
6.76221
7.00679
7.23096
7.45234
7.64552
7.82278
7.99483
8.13317
8.24382
8.34252
8.43804
8.52008
8.5932
8.66263
8.72137
8.77282
8.82079
8.86109
8.89649
8.93174
8.96876
9.0013
9.03058
9.05864
9.0827
9.10423
9.12488
9.14273
9.15889
9.17431
9.18671
9.19661
9.20533
9.21363
9.22078
9.22721
9.23334
9.2386
9.24328
9.2477
9.25147
9.25484
9.25825
9.26189
9.26511
9.26801
9.27081
9.27316
9.2752
9.27704
9.27834
9.2791
9.27945
4.82634
4.83668
4.85889
4.89655
4.95665
5.05225
5.20696
5.45536
5.80567
6.11315
6.39944
6.70065
6.95124
7.17883
7.41312
7.60944
7.78962
7.97345
8.11351
8.2211
8.31817
8.41705
8.49891
8.57154
8.64338
8.70187
8.75269
8.80185
8.84142
8.87548
8.91051
8.94965
8.98255
9.01184
9.04099
9.06503
9.08643
9.10779
9.12563
9.14181
9.15803
9.17042
9.17995
9.18842
9.19688
9.20394
9.21027
9.21657
9.22177
9.22639
9.23092
9.23462
9.23786
9.24127
9.24515
9.24842
9.25135
9.2543
9.25669
9.25877
9.26076
9.2621
9.26285
9.26319
4.68595
4.69499
4.7145
4.74786
4.80193
4.89039
5.0408
5.30204
5.7054
6.02664
6.31885
6.64667
6.90034
7.12834
7.37929
7.57649
7.75757
7.95724
8.09786
8.20039
8.29472
8.39862
8.47957
8.55091
8.62627
8.68396
8.7336
8.78467
8.82316
8.8553
8.88981
8.93198
8.96497
8.99393
9.02462
9.04839
9.06941
9.0918
9.10944
9.12548
9.14283
9.15513
9.16413
9.17226
9.18101
9.18791
9.19409
9.20064
9.20575
9.21025
9.21496
9.21855
9.22162
9.225
9.2292
9.2325
9.23543
9.23858
9.24098
9.24307
9.24526
9.24663
9.24736
9.24767
4.5509
4.55857
4.5752
4.60384
4.65093
4.73014
4.87212
5.14285
5.61678
5.94647
6.23864
6.60162
6.85393
7.07803
7.3517
7.54642
7.72527
7.94696
8.08625
8.18131
8.27145
8.38303
8.46192
8.53084
8.61147
8.66755
8.71523
8.76935
8.80626
8.83579
8.86935
8.91591
8.94853
8.97666
9.00957
9.03273
9.05302
9.07693
9.0941
9.10976
9.12874
9.1408
9.14908
9.15676
9.166
9.17265
9.17858
9.18554
9.19049
9.1948
9.1998
9.20325
9.20607
9.20937
9.21403
9.21731
9.22018
9.22361
9.22598
9.22806
9.23052
9.23191
9.23258
9.23287
4.42114
4.4274
4.44102
4.46464
4.50395
4.57182
4.7004
4.9742
5.54369
5.87285
6.1562
6.56749
6.81185
7.02591
7.3317
7.51895
7.69093
7.9438
8.07874
8.16346
8.24747
8.37077
8.44586
8.5107
8.5993
8.65255
8.69715
8.7561
8.7907
8.81682
8.84874
8.90166
8.93317
8.95977
8.99598
9.01799
9.03707
9.06326
9.07957
9.09446
9.11584
9.12742
9.13474
9.14182
9.15186
9.15813
9.16367
9.17128
9.17595
9.17998
9.18543
9.18866
9.19116
9.19432
9.19965
9.20283
9.20556
9.20939
9.21168
9.21367
9.21651
9.21789
9.2185
9.21874
4.29659
4.30143
4.31198
4.33036
4.36128
4.41594
4.52546
4.79106
5.49157
5.80584
6.06792
6.54719
6.77384
6.96929
7.32134
7.4938
7.65211
7.94949
8.07527
8.14646
8.22164
8.36261
8.43126
8.48968
8.59029
8.63884
8.6788
8.74523
8.77645
8.79826
8.82748
8.88963
8.91886
8.94291
8.98404
9.00411
9.02129
9.05092
9.06578
9.07936
9.10424
9.11494
9.12105
9.12732
9.13862
9.1443
9.14927
9.15786
9.1621
9.16571
9.17186
9.17478
9.17687
9.17977
9.18606
9.18902
9.19151
9.19591
9.19802
9.19986
9.20323
9.20454
9.20506
9.20526
4.17716
4.18058
4.18804
4.2011
4.22325
4.26317
4.34762
4.58653
5.46785
5.74529
5.96882
6.54486
6.73961
6.90456
7.32357
7.47072
7.60559
7.96654
8.07565
8.12992
8.19249
8.3597
8.41799
8.46674
8.58519
8.62632
8.65947
8.73723
8.76347
8.78001
8.80492
8.88036
8.90552
8.92563
8.97405
8.99105
9.00536
9.04013
9.05268
9.06416
9.0941
9.10331
9.10795
9.11312
9.12635
9.13112
9.13526
9.14532
9.1489
9.1519
9.15911
9.16156
9.16314
9.16563
9.17329
9.17585
9.17795
9.18318
9.18499
9.18655
9.19068
9.19183
9.19223
9.19238
4.06274
4.06476
4.06919
4.07694
4.09016
4.11433
4.168
4.35124
5.48249
5.69072
5.85226
6.5662
6.70871
6.82696
7.34252
7.44941
7.54713
7.99842
8.0794
8.11361
8.15815
8.36365
8.4059
8.44049
8.5851
8.61484
8.63823
8.73276
8.75166
8.76204
8.78023
8.8746
8.89308
8.90737
8.96644
8.97872
8.98886
9.03119
9.04022
9.04848
9.08569
9.09249
9.0954
9.09904
9.11514
9.11857
9.12149
9.13374
9.13631
9.13844
9.14721
9.14897
9.14997
9.15179
9.1614
9.16328
9.16479
9.17123
9.17254
9.17368
9.17886
9.17974
9.17999
9.18008
3.95321
3.95388
3.95534
3.9579
3.96227
3.97033
3.98892
4.07264
5.54868
5.64118
5.70957
6.61892
6.68055
6.7303
7.38374
7.42955
7.47124
8.04984
8.08564
8.09742
8.11621
8.37667
8.39478
8.40918
8.59151
8.60423
8.6139
8.73276
8.74085
8.74442
8.75232
8.87339
8.88143
8.88737
8.96182
8.96706
8.97128
9.02452
9.02836
9.03186
9.07937
9.08236
9.08336
9.08488
9.10514
9.10659
9.10781
9.12321
9.12431
9.12519
9.13623
9.13699
9.13733
9.13813
9.15048
9.1513
9.15193
9.16009
9.16065
9.16114
9.16781
9.1682
9.16829
9.16832
)
;

boundaryField
{
    left
    {
        type            zeroGradient;
    }
    right
    {
        type            zeroGradient;
    }
    interface
    {
        type            fixedValue;
        value           nonuniform List<scalar> 
64
(
3.89966
3.89966
3.89966
3.89966
3.89966
3.89966
3.89966
3.89966
5.6176
5.6176
5.6176
6.66709
6.66709
6.66709
7.41995
7.41995
7.41995
8.08932
8.08932
8.08932
8.08932
8.38944
8.38944
8.38944
8.59913
8.59913
8.59913
8.73569
8.73569
8.73569
8.73569
8.87579
8.87579
8.87579
8.96139
8.96139
8.96139
9.02257
9.02257
9.02257
9.07746
9.07746
9.07746
9.07746
9.10075
9.10075
9.10075
9.11845
9.11845
9.11845
9.13114
9.13114
9.13114
9.13114
9.14544
9.14544
9.14544
9.15484
9.15484
9.15484
9.16258
9.16258
9.16258
9.16258
)
;
    }
    bottom
    {
        type            fixedValue;
        value           uniform 10;
    }
    defaultFaces
    {
        type            empty;
    }
}


// ************************************************************************* //
