/*--------------------------------*- C++ -*----------------------------------*\
| =========                 |                                                 |
| \\      /  F ield         | OpenFOAM: The Open Source CFD Toolbox           |
|  \\    /   O peration     | Version:  5.x                                   |
|   \\  /    A nd           | Web:      www.OpenFOAM.org                      |
|    \\/     M anipulation  |                                                 |
\*---------------------------------------------------------------------------*/
FoamFile
{
    version     2.0;
    format      ascii;
    class       volScalarField;
    location    "7";
    object      gradTy;
}
// * * * * * * * * * * * * * * * * * * * * * * * * * * * * * * * * * * * * * //

dimensions      [0 -1 0 1 0 0 0];

internalField   nonuniform List<scalar> 
2048
(
-20.1896
-20.0932
-19.9014
-19.6164
-19.2418
-18.7827
-18.2458
-17.6396
-16.974
-16.2602
-15.5102
-14.7362
-13.9502
-13.1634
-12.3858
-11.6261
-10.8915
-10.1878
-9.51893
-8.8878
-8.29587
-7.74361
-7.23059
-6.75573
-6.31746
-5.91388
-5.54286
-5.20221
-4.88972
-4.60326
-4.3408
-4.10047
-3.88056
-3.67954
-3.49602
-3.32876
-3.17664
-3.03862
-2.91373
-2.80106
-2.69973
-2.60891
-2.52777
-2.45552
-2.39138
-2.33461
-2.2845
-2.24038
-2.20162
-2.16764
-2.13791
-2.11195
-2.08933
-2.06967
-2.05264
-2.03798
-2.02543
-2.01481
-2.00596
-1.99875
-1.99309
-1.9889
-1.98613
-1.98476
-20.2676
-20.1703
-19.9767
-19.6889
-19.3102
-18.8457
-18.3019
-17.6876
-17.0129
-16.2894
-15.5296
-14.746
-13.9509
-13.1559
-12.3713
-11.6058
-10.8666
-10.1595
-9.48842
-8.85606
-8.26377
-7.71184
-7.1997
-6.72611
-6.28939
-5.8875
-5.51826
-5.1794
-4.86864
-4.58382
-4.32287
-4.08392
-3.86525
-3.66534
-3.48283
-3.31648
-3.1652
-3.02796
-2.9038
-2.79184
-2.6912
-2.60104
-2.52054
-2.44891
-2.38538
-2.32918
-2.27962
-2.236
-2.19771
-2.16416
-2.13482
-2.10921
-2.08689
-2.0675
-2.0507
-2.03622
-2.02383
-2.01334
-2.00459
-1.99746
-1.99186
-1.98771
-1.98497
-1.98361
-20.4158
-20.317
-20.1201
-19.827
-19.4406
-18.9657
-18.409
-17.7792
-17.0871
-16.345
-15.5661
-14.7639
-13.9515
-13.141
-12.3429
-11.5663
-10.8186
-10.1051
-9.42995
-8.79539
-8.20252
-7.65134
-7.14095
-6.66987
-6.23614
-5.83754
-5.47173
-5.13627
-4.82882
-4.54711
-4.28904
-4.05269
-3.83637
-3.63856
-3.45794
-3.2933
-3.14359
-3.00782
-2.88505
-2.77442
-2.67506
-2.58615
-2.50688
-2.43643
-2.37404
-2.31893
-2.2704
-2.22775
-2.19035
-2.15761
-2.12901
-2.10405
-2.08231
-2.06341
-2.04704
-2.03292
-2.02083
-2.01058
-2.00202
-1.99504
-1.98954
-1.98547
-1.98278
-1.98145
-20.626
-20.5251
-20.3239
-20.0235
-19.6265
-19.1371
-18.5619
-17.9099
-17.1926
-16.4235
-15.6171
-14.7882
-13.9509
-13.1181
-12.301
-11.5088
-10.7489
-10.0267
-9.34593
-8.70851
-8.1151
-7.56523
-7.05757
-6.59021
-6.16088
-5.76706
-5.40618
-5.07563
-4.7729
-4.49562
-4.24162
-4.00895
-3.79591
-3.60103
-3.42303
-3.26078
-3.11325
-2.97952
-2.85869
-2.74991
-2.65236
-2.56521
-2.48766
-2.41889
-2.35811
-2.30454
-2.25747
-2.21618
-2.18004
-2.14845
-2.12088
-2.09684
-2.07591
-2.05772
-2.04195
-2.02833
-2.01665
-2.00673
-1.99843
-1.99165
-1.98631
-1.98234
-1.97972
-1.97842
-20.8907
-20.7876
-20.5814
-20.2726
-19.8627
-19.3553
-18.7567
-18.0761
-17.3263
-16.5222
-15.6802
-14.8167
-13.9475
-13.0863
-12.2451
-11.4333
-10.6584
-9.92559
-9.23814
-8.59758
-8.00396
-7.45617
-6.95231
-6.48996
-6.06641
-5.6788
-5.32427
-5
-4.70329
-4.43162
-4.18273
-3.95465
-3.74569
-3.55442
-3.37965
-3.22031
-3.07547
-2.94425
-2.82581
-2.71934
-2.62403
-2.53909
-2.46369
-2.39702
-2.33827
-2.28665
-2.2414
-2.20182
-2.16726
-2.13711
-2.11084
-2.08795
-2.06803
-2.05071
-2.03568
-2.02268
-2.0115
-2.00199
-1.99401
-1.98747
-1.98231
-1.97847
-1.97593
-1.97466
-21.2036
-21.0982
-20.887
-20.5692
-20.145
-19.6168
-18.9902
-18.2751
-17.4855
-16.6385
-15.7529
-14.8474
-13.9396
-13.0445
-12.1746
-11.3399
-10.5476
-9.80267
-9.10797
-8.46437
-7.87116
-7.32646
-6.82763
-6.37163
-5.95524
-5.57523
-5.22841
-4.9117
-4.62219
-4.3572
-4.11435
-3.89163
-3.68738
-3.50027
-3.3292
-3.1732
-3.03144
-2.9031
-2.78741
-2.68361
-2.59092
-2.50854
-2.43568
-2.37149
-2.31513
-2.2658
-2.22272
-2.18516
-2.15245
-2.12399
-2.09923
-2.0777
-2.05896
-2.04265
-2.02848
-2.01619
-2.00559
-1.99653
-1.98891
-1.98265
-1.97769
-1.97399
-1.97154
-1.97031
-21.5585
-21.4513
-21.2356
-20.9091
-20.4699
-19.9187
-19.2603
-18.5049
-17.6681
-16.7701
-15.8329
-14.8781
-13.9253
-12.9911
-12.0887
-11.2281
-10.4165
-9.65858
-8.95648
-8.31033
-7.7185
-7.17814
-6.68573
-6.2375
-5.82967
-5.4586
-5.12077
-4.81283
-4.53163
-4.27428
-4.03827
-3.82155
-3.62253
-3.43998
-3.27293
-3.12058
-2.98218
-2.85702
-2.74437
-2.64353
-2.55375
-2.47427
-2.40427
-2.34289
-2.28926
-2.24253
-2.2019
-2.16661
-2.136
-2.10944
-2.0864
-2.06638
-2.04896
-2.03378
-2.02056
-2.00905
-1.99908
-1.99053
-1.98329
-1.97732
-1.97257
-1.96902
-1.96666
-1.96548
-21.9497
-21.8415
-21.6226
-21.2885
-20.8347
-20.2593
-19.5655
-18.7638
-17.8724
-16.915
-15.9179
-14.9065
-13.9027
-12.9248
-11.9864
-11.0976
-10.2654
-9.49382
-8.78457
-8.13677
-7.54763
-7.01311
-6.52865
-6.08966
-5.69179
-5.33097
-5.00336
-4.70533
-4.43346
-4.18462
-3.95615
-3.74595
-3.55251
-3.37478
-3.21199
-3.06349
-2.92866
-2.80686
-2.69747
-2.59982
-2.5132
-2.43688
-2.37003
-2.31176
-2.26115
-2.2173
-2.17937
-2.14659
-2.11828
-2.09381
-2.07263
-2.05426
-2.03828
-2.02433
-2.01212
-2.00145
-1.99215
-1.98411
-1.97728
-1.97161
-1.96707
-1.96367
-1.9614
-1.96026
-22.3716
-22.2637
-22.0437
-21.7043
-21.2373
-20.6372
-19.9049
-19.051
-18.0968
-17.0711
-16.0057
-14.9302
-13.8698
-12.8439
-11.8666
-10.9478
-10.094
-9.30875
-8.59301
-7.94486
-7.36007
-6.83314
-6.3583
-5.93008
-5.54352
-5.19419
-4.87796
-4.59092
-4.32936
-4.08984
-3.8695
-3.6662
-3.47856
-3.3058
-3.14736
-3.00281
-2.87167
-2.75339
-2.6474
-2.5531
-2.46984
-2.39691
-2.33347
-2.27857
-2.23124
-2.19052
-2.15551
-2.12544
-2.09959
-2.07736
-2.05819
-2.04159
-2.02714
-2.01449
-2.00335
-1.99354
-1.98493
-1.97742
-1.97099
-1.96561
-1.96128
-1.95803
-1.95585
-1.95475
-22.8188
-22.7128
-22.4946
-22.1534
-21.6761
-21.052
-20.2786
-19.3662
-18.3402
-17.2365
-16.0937
-14.9469
-13.8245
-12.747
-11.7285
-10.7783
-9.90238
-9.1037
-8.38252
-7.73572
-7.15731
-6.63997
-6.17653
-5.76059
-5.38666
-5.04999
-4.74622
-4.47119
-4.22085
-3.99142
-3.77972
-3.58356
-3.40181
-3.234
-3.07991
-2.93934
-2.81194
-2.69725
-2.59477
-2.50393
-2.42417
-2.35481
-2.29501
-2.24375
-2.19994
-2.16256
-2.13067
-2.10347
-2.08024
-2.06037
-2.04331
-2.02858
-2.01573
-2.00443
-1.9944
-1.98547
-1.97755
-1.97057
-1.96452
-1.95943
-1.9553
-1.95217
-1.95007
-1.94902
-23.2857
-23.1837
-22.9713
-22.6332
-22.1499
-21.5039
-20.6872
-19.7096
-18.6017
-17.4091
-16.1794
-14.954
-13.7646
-12.6325
-11.5712
-10.5889
-9.69063
-8.879
-8.15375
-7.51045
-6.94082
-6.43529
-5.98512
-5.58296
-5.22285
-4.89989
-4.60958
-4.34752
-4.10933
-3.89072
-3.68808
-3.49917
-3.32323
-3.16024
-3.01039
-2.87374
-2.75009
-2.63903
-2.5401
-2.4528
-2.37663
-2.311
-2.25505
-2.20766
-2.16761
-2.13377
-2.10516
-2.08095
-2.06045
-2.04305
-2.0282
-2.0154
-2.00423
-1.99431
-1.9854
-1.97736
-1.97011
-1.96364
-1.95797
-1.95313
-1.94918
-1.94617
-1.94415
-1.94312
-23.7668
-23.6715
-23.4698
-23.141
-22.6579
-21.9935
-21.1322
-20.0819
-18.8805
-17.5867
-16.2599
-14.9486
-13.688
-12.4992
-11.394
-10.3793
-9.45889
-8.63494
-7.9073
-7.27012
-6.71212
-6.22083
-5.78582
-5.39886
-5.05362
-4.74529
-4.46934
-4.22116
-3.99602
-3.78898
-3.59576
-3.41406
-3.24367
-3.08524
-2.93941
-2.80659
-2.68667
-2.57923
-2.48385
-2.4001
-2.32757
-2.2658
-2.21392
-2.17064
-2.13456
-2.10444
-2.07924
-2.05814
-2.04046
-2.0256
-2.01302
-2.00223
-1.99277
-1.98427
-1.97649
-1.96931
-1.96272
-1.95673
-1.95139
-1.94678
-1.94298
-1.94007
-1.93812
-1.93713
-24.2564
-24.1708
-23.9857
-23.6744
-23.1997
-22.5226
-21.6159
-20.4845
-19.1756
-17.7669
-16.3323
-14.928
-13.5926
-12.346
-11.1967
-10.1498
-9.20749
-8.3718
-7.64368
-7.01582
-6.47277
-5.99831
-5.58035
-5.20987
-4.88035
-4.58741
-4.32662
-4.09318
-3.88205
-3.68739
-3.50389
-3.32914
-3.16387
-3.00959
-2.86749
-2.73836
-2.62213
-2.51829
-2.42645
-2.34622
-2.27731
-2.21949
-2.17189
-2.13298
-2.10108
-2.07483
-2.05317
-2.03525
-2.02044
-2.00818
-1.99793
-1.9892
-1.98149
-1.97442
-1.96774
-1.96141
-1.95544
-1.94989
-1.94486
-1.94045
-1.93676
-1.93393
-1.93203
-1.93108
-24.7489
-24.6765
-24.5149
-24.2306
-23.775
-23.0932
-22.142
-20.9195
-19.486
-17.9465
-16.3929
-14.8888
-13.4763
-12.172
-10.9791
-9.90071
-8.93697
-8.08979
-7.36326
-6.74866
-6.22448
-5.76953
-5.37041
-5.01753
-4.7043
-4.42731
-4.18239
-3.96447
-3.76837
-3.58704
-3.41352
-3.24522
-3.08442
-2.93378
-2.79503
-2.66945
-2.55689
-2.4566
-2.36826
-2.29146
-2.22609
-2.17229
-2.12923
-2.09496
-2.06744
-2.04521
-2.02715
-2.01245
-2.00055
-1.99093
-1.98305
-1.97642
-1.97051
-1.96487
-1.95927
-1.95373
-1.94833
-1.94318
-1.93842
-1.93416
-1.93056
-1.92778
-1.92593
-1.925
-25.2386
-25.1833
-25.0528
-24.8067
-24.3835
-23.7083
-22.715
-21.3898
-19.8102
-18.122
-16.4383
-14.8277
-13.3372
-11.9769
-10.7414
-9.63291
-8.64816
-7.78896
-7.06621
-6.46979
-5.96911
-5.53628
-5.15767
-4.82333
-4.52656
-4.26591
-4.03747
-3.83572
-3.65583
-3.48903
-3.32572
-3.16301
-3.0058
-2.8582
-2.72232
-2.60016
-2.4913
-2.3945
-2.3096
-2.23613
-2.17409
-2.12436
-2.08614
-2.05683
-2.03388
-2.01577
-2.00138
-1.9899
-1.98092
-1.97396
-1.96847
-1.96398
-1.95991
-1.9557
-1.95112
-1.94632
-1.94146
-1.93665
-1.9321
-1.92796
-1.9244
-1.92164
-1.91983
-1.91894
-25.7202
-25.6858
-25.5945
-25.3995
-25.0249
-24.3714
-23.3412
-21.8995
-20.146
-18.2888
-16.4645
-14.7411
-13.1735
-11.7609
-10.4842
-9.34756
-8.3423
-7.46907
-6.75231
-6.18049
-5.70884
-5.30037
-4.94372
-4.6287
-4.34803
-4.10393
-3.89255
-3.70743
-3.54508
-3.39444
-3.24157
-3.08307
-2.92833
-2.78312
-2.64954
-2.53074
-2.42571
-2.33227
-2.25078
-2.18049
-2.12144
-2.07579
-2.04281
-2.01885
-2.00062
-1.98671
-1.97602
-1.96772
-1.96165
-1.95736
-1.95428
-1.95197
-1.94978
-1.94699
-1.94337
-1.93924
-1.93484
-1.93033
-1.92595
-1.92188
-1.91829
-1.91554
-1.91377
-1.91293
-26.1882
-26.1786
-26.1351
-26.0053
-25.6986
-25.0869
-24.0286
-22.4541
-20.4896
-18.4414
-16.4679
-14.6247
-12.9835
-11.5249
-10.2079
-9.04627
-8.02126
-7.1294
-6.42087
-5.88216
-5.44623
-5.06354
-4.73011
-4.43513
-4.16938
-3.94195
-3.74828
-3.57981
-3.43663
-3.30443
-3.16227
-3.00578
-2.85218
-2.7088
-2.57673
-2.46135
-2.36047
-2.27017
-2.19208
-2.12484
-2.06817
-2.02659
-1.99939
-1.98126
-1.96785
-1.9582
-1.95123
-1.94601
-1.94281
-1.9412
-1.94051
-1.94045
-1.94021
-1.93883
-1.93604
-1.93251
-1.92853
-1.92423
-1.91999
-1.91594
-1.91226
-1.90947
-1.90776
-1.90698
-26.6379
-26.6567
-26.6694
-26.6195
-26.4031
-25.859
-24.7875
-23.0613
-20.8349
-18.5728
-16.4454
-14.4737
-12.7657
-11.2712
-9.91309
-8.73112
-7.6879
-6.76842
-6.07044
-5.57653
-5.18451
-4.8273
-4.5182
-4.2442
-3.99096
-3.78036
-3.60532
-3.45277
-3.33074
-3.22027
-3.08923
-2.9313
-2.77733
-2.63547
-2.50379
-2.39212
-2.29595
-2.20835
-2.13378
-2.0695
-2.01424
-1.97669
-1.95606
-1.94435
-1.93575
-1.93039
-1.92715
-1.92483
-1.92445
-1.92555
-1.92721
-1.92943
-1.93126
-1.93128
-1.92916
-1.92614
-1.92254
-1.91838
-1.91424
-1.91017
-1.9063
-1.90344
-1.90182
-1.90113
-27.0646
-27.115
-27.1917
-27.237
-27.1361
-26.6925
-25.6312
-23.7319
-21.1718
-18.6743
-16.3958
-14.2819
-12.519
-11.0039
-9.59936
-8.40463
-7.34664
-6.38332
-5.69855
-5.2658
-4.92782
-4.59269
-4.30918
-4.05782
-3.81265
-3.61941
-3.46451
-3.32578
-3.22738
-3.14347
-3.02417
-2.85935
-2.70356
-2.56348
-2.43043
-2.32311
-2.23269
-2.14687
-2.07615
-2.01493
-1.95946
-1.92589
-1.913
-1.90847
-1.90446
-1.90339
-1.90393
-1.90421
-1.90662
-1.91046
-1.91436
-1.91896
-1.92301
-1.92442
-1.92274
-1.92014
-1.91689
-1.91275
-1.90871
-1.90461
-1.90041
-1.89744
-1.89595
-1.8954
-27.4645
-27.549
-27.6965
-27.8517
-27.8937
-27.5913
-26.5759
-24.4819
-21.4841
-18.7354
-16.3211
-14.0407
-12.2422
-10.7298
-9.26479
-8.06977
-7.00448
-5.9692
-5.30142
-4.95293
-4.68174
-4.3598
-4.10397
-3.87848
-3.63358
-3.45916
-3.32714
-3.19772
-3.12615
-3.0758
-2.9694
-2.78907
-2.63042
-2.49346
-2.35603
-2.25431
-2.17139
-2.08557
-2.01946
-1.96175
-1.90344
-1.8739
-1.87041
-1.87404
-1.87402
-1.87729
-1.88174
-1.88413
-1.8893
-1.89601
-1.90195
-1.90901
-1.91554
-1.91836
-1.91673
-1.91449
-1.91163
-1.90735
-1.90342
-1.89929
-1.89456
-1.89145
-1.89017
-1.88983
-27.8342
-27.9546
-28.1783
-28.4568
-28.6704
-28.5585
-27.6417
-25.3348
-21.7458
-18.7438
-16.2292
-13.7376
-11.9343
-10.4602
-8.90424
-7.72988
-6.67245
-5.51793
-4.87358
-4.64196
-4.45388
-4.12717
-3.90313
-3.70981
-3.45175
-3.29951
-3.19531
-3.06656
-3.02615
-3.0195
-2.92809
-2.71863
-2.55721
-2.42652
-2.27951
-2.18567
-2.11318
-2.02398
-1.96395
-1.91096
-1.84555
-1.82025
-1.82859
-1.84164
-1.84441
-1.85214
-1.86082
-1.8645
-1.8725
-1.88229
-1.8899
-1.89957
-1.90895
-1.91322
-1.91106
-1.90917
-1.9068
-1.90212
-1.89838
-1.89428
-1.88871
-1.88545
-1.88449
-1.88444
-28.1712
-28.3283
-28.6317
-29.0446
-29.4582
-29.5944
-28.8523
-26.3264
-21.9162
-18.6848
-16.1377
-13.3534
-11.5945
-10.2131
-8.50711
-7.38861
-6.36786
-5.01632
-4.40767
-4.33842
-4.25483
-3.89065
-3.70682
-3.5573
-3.26336
-3.14021
-3.07254
-2.92904
-2.92591
-2.97728
-2.90477
-2.64474
-2.48299
-2.3647
-2.19904
-2.11708
-2.05976
-1.96107
-1.90989
-1.86405
-1.78467
-1.76432
-1.78793
-1.81205
-1.8154
-1.82795
-1.84149
-1.84512
-1.85619
-1.86946
-1.87808
-1.89057
-1.90334
-1.90918
-1.90561
-1.90415
-1.90249
-1.89699
-1.8936
-1.88968
-1.8828
-1.87938
-1.87893
-1.87929
-28.4737
-28.6672
-29.0515
-29.6068
-30.2469
-30.6961
-30.2344
-27.5111
-21.9321
-18.5424
-16.0792
-12.8573
-11.2219
-10.0171
-8.05374
-7.04983
-6.11761
-4.44344
-3.89428
-4.04977
-4.09951
-3.64194
-3.51478
-3.42945
-3.06184
-2.98088
-2.96455
-2.77994
-2.82323
-2.95246
-2.90595
-2.56182
-2.40655
-2.31146
-2.11162
-2.04838
-2.01382
-1.89498
-1.85751
-1.82336
-1.71904
-1.7053
-1.74897
-1.78635
-1.78652
-1.8047
-1.82425
-1.82566
-1.84031
-1.85777
-1.86631
-1.88194
-1.89884
-1.9065
-1.90013
-1.89937
-1.89886
-1.89182
-1.88911
-1.88566
-1.87671
-1.87321
-1.87351
-1.87441
-28.7407
-28.9692
-29.4334
-30.1348
-31.0236
-31.8549
-31.8164
-28.9713
-21.6972
-18.2997
-16.1093
-12.2011
-10.8159
-9.91604
-7.51039
-6.7175
-5.96283
-3.76665
-3.32226
-3.78569
-4.00898
-3.36639
-3.32633
-3.33941
-2.83635
-2.82106
-2.88046
-2.61129
-2.71519
-2.94892
-2.94119
-2.46098
-2.32654
-2.2725
-2.01239
-1.97939
-1.97952
-1.82249
-1.80705
-1.79247
-1.64593
-1.64226
-1.71243
-1.76604
-1.75686
-1.78232
-1.80984
-1.80556
-1.82482
-1.84762
-1.85425
-1.87356
-1.89563
-1.90556
-1.89427
-1.89479
-1.89614
-1.88639
-1.88491
-1.88245
-1.87028
-1.86689
-1.86827
-1.86986
-28.972
-29.2332
-29.7736
-30.6202
-31.7727
-33.0554
-33.625
-30.8319
-21.0672
-17.9406
-16.317
-11.3094
-10.3764
-9.97653
-6.82208
-6.39558
-5.96532
-2.9359
-2.67972
-3.55822
-4.01303
-3.03994
-3.14053
-3.30726
-2.56971
-2.66037
-2.83436
-2.41096
-2.59828
-2.97093
-3.02441
-2.32844
-2.2416
-2.25676
-1.89376
-1.90994
-1.96317
-1.73839
-1.75872
-1.77674
-1.56107
-1.57424
-1.67924
-1.75322
-1.72491
-1.76074
-1.79943
-1.7839
-1.80967
-1.83963
-1.84143
-1.86528
-1.89385
-1.90692
-1.88746
-1.89035
-1.89473
-1.88037
-1.88102
-1.88042
-1.86324
-1.86037
-1.86326
-1.86569
-29.1679
-29.4588
-30.0694
-31.055
-32.4769
-34.2728
-35.6788
-33.279
-19.8297
-17.4524
-16.8385
-10.0665
-9.90471
-10.2976
-5.9029
-6.08801
-6.21615
-1.87583
-1.95597
-3.38127
-4.15363
-2.62517
-2.95651
-3.36301
-2.23552
-2.49868
-2.84739
-2.16096
-2.46869
-3.02272
-3.17581
-2.14348
-2.15057
-2.27788
-1.74406
-1.83999
-1.97414
-1.63456
-1.71275
-1.78409
-1.45804
-1.50039
-1.65052
-1.75081
-1.68828
-1.73986
-1.79469
-1.75928
-1.79482
-1.83473
-1.8271
-1.85696
-1.89369
-1.91138
-1.87886
-1.88601
-1.89522
-1.87321
-1.87746
-1.8801
-1.85517
-1.85362
-1.85855
-1.86197
-29.3296
-29.6463
-30.3193
-31.4325
-33.1177
-35.4724
-37.9789
-36.5871
-17.6773
-16.8299
-17.8754
-8.29917
-9.40453
-11.0234
-4.62316
-5.79883
-6.84695
-0.47494
-1.14521
-3.26938
-4.48963
-2.06589
-2.77391
-3.55056
-1.79428
-2.3365
-2.95042
-1.83486
-2.32312
-3.1076
-3.42448
-1.87571
-2.05294
-2.35592
-1.54584
-1.76975
-2.02613
-1.49878
-1.66944
-1.82593
-1.32731
-1.42031
-1.62747
-1.76281
-1.64333
-1.71967
-1.79812
-1.72959
-1.78028
-1.83426
-1.81017
-1.84845
-1.89527
-1.92009
-1.86721
-1.88173
-1.89846
-1.86411
-1.87425
-1.88226
-1.84545
-1.84664
-1.85422
-1.85873
-29.4586
-29.7968
-30.5226
-31.7475
-33.6768
-36.6084
-40.4942
-41.1539
-14.1726
-16.0815
-19.7167
-5.75373
-8.88452
-12.3593
-2.79296
-5.53249
-8.04417
1.42879
-0.25232
-3.23508
-5.10292
-1.28047
-2.59373
-3.93271
-1.18836
-2.17559
-3.1874
-1.3946
-2.16004
-3.22654
-3.81179
-1.48152
-1.94943
-2.51967
-1.27353
-1.69997
-2.13862
-1.31311
-1.62919
-1.91844
-1.15497
-1.33453
-1.61125
-1.79476
-1.58472
-1.70023
-1.81322
-1.6917
-1.76616
-1.84012
-1.78903
-1.83968
-1.8986
-1.9347
-1.85073
-1.8775
-1.90569
-1.85189
-1.87139
-1.88794
-1.83315
-1.83949
-1.85035
-1.85601
-29.557
-29.9121
-30.6802
-31.9969
-34.1379
-37.6257
-43.1402
-47.5463
-8.70483
-15.2374
-22.7659
-2.06751
-8.36137
-14.5918
-0.141633
-5.29446
-10.0668
4.06644
0.698403
-3.28453
-6.10644
-0.153373
-2.41943
-4.59725
-0.335673
-2.0198
-3.61942
-0.786207
-1.98178
-3.37596
-4.39583
-0.899659
-1.84282
-2.80928
-0.890669
-1.6323
-2.3388
-1.052
-1.59267
-2.08403
-0.921095
-1.24528
-1.60263
-1.85419
-1.50487
-1.68184
-1.84486
-1.64115
-1.7527
-1.85489
-1.76139
-1.83069
-1.90349
-1.95749
-1.82687
-1.87336
-1.91864
-1.83485
-1.86889
-1.89863
-1.81693
-1.83234
-1.84703
-1.85382
-29.627
-29.9945
-30.7939
-32.1797
-34.4882
-38.4632
-45.7501
-56.5573
-0.435526
-14.3613
-27.5726
3.26608
-7.86453
-18.1124
3.70704
-5.09231
-13.2679
7.76151
1.65075
-3.41049
-7.65429
1.47504
-2.25845
-5.6642
0.878057
-1.87629
-4.32957
0.0655566
-1.79758
-3.54443
-5.25701
-0.0457836
-1.73908
-3.2795
-0.346293
-1.56983
-2.66376
-0.679843
-1.56101
-2.35319
-0.597764
-1.15749
-1.60148
-1.95125
-1.39322
-1.66512
-1.89964
-1.57164
-1.74039
-1.88209
-1.724
-1.8218
-1.9094
-1.99162
-1.79215
-1.86944
-1.93962
-1.81063
-1.86674
-1.91628
-1.79487
-1.8255
-1.84434
-1.85212
-29.6713
-30.0467
-30.8662
-32.2975
-34.7204
-39.061
-48.0366
-69.2766
11.7662
-13.5644
-34.869
10.9388
-7.44251
-23.4446
9.264
-4.93714
-18.1192
12.9586
2.49972
-3.58232
-9.95438
3.82061
-2.1243
-7.29426
2.60853
-1.75723
-5.4284
1.26373
-1.62791
-3.70825
-6.50492
1.19405
-1.64891
-4.00326
0.429151
-1.51781
-3.16305
-0.148238
-1.53601
-2.76661
-0.146516
-1.08025
-1.60608
-2.09957
-1.23542
-1.65123
-1.98634
-1.47455
-1.7301
-1.92631
-1.67239
-1.81373
-1.91524
-2.04135
-1.74181
-1.86596
-1.97175
-1.77597
-1.86496
-1.9435
-1.76432
-1.81954
-1.84231
-1.85085
-29.6923
-30.0715
-30.9007
-32.3542
-34.8342
-39.3721
-49.5432
-87.1745
29.3995
-13.0248
-45.6096
21.875
-7.17116
-31.2753
17.2081
-4.84579
-25.2405
20.2572
3.06942
-3.73222
-13.2838
7.16927
-2.03911
-9.6983
5.06333
-1.68202
-7.06036
2.94688
-1.51036
-3.82561
-8.28678
2.97081
-1.58975
-5.07592
1.5284
-1.48482
-3.90179
0.607013
-1.52084
-3.37784
0.484308
-1.02893
-1.61236
-2.31749
-1.01269
-1.64237
-2.11668
-1.33863
-1.72349
-1.99377
-1.60082
-1.80815
-1.91941
-2.11273
-1.66987
-1.86359
-2.01933
-1.72681
-1.86377
-1.98394
-1.72193
-1.81559
-1.84111
-1.8501
)
;

boundaryField
{
    left
    {
        type            calculated;
        value           nonuniform List<scalar> 
32
(
-20.1896
-20.2676
-20.4158
-20.626
-20.8907
-21.2036
-21.5585
-21.9497
-22.3716
-22.8188
-23.2857
-23.7668
-24.2564
-24.7489
-25.2386
-25.7202
-26.1882
-26.6379
-27.0646
-27.4645
-27.8342
-28.1712
-28.4737
-28.7407
-28.972
-29.1679
-29.3296
-29.4586
-29.557
-29.627
-29.6713
-29.6923
)
;
    }
    right
    {
        type            calculated;
        value           nonuniform List<scalar> 
32
(
-1.98476
-1.98361
-1.98145
-1.97842
-1.97466
-1.97031
-1.96548
-1.96026
-1.95475
-1.94902
-1.94312
-1.93713
-1.93108
-1.925
-1.91894
-1.91293
-1.90698
-1.90113
-1.8954
-1.88983
-1.88444
-1.87929
-1.87441
-1.86986
-1.86569
-1.86197
-1.85873
-1.85601
-1.85382
-1.85212
-1.85085
-1.8501
)
;
    }
    interface
    {
        type            calculated;
        value           nonuniform List<scalar> 
64
(
-29.6973
-30.0774
-30.909
-32.3679
-34.8619
-39.4512
-50.0323
-97.6285
39.7869
-12.8463
-51.9756
28.2906
-7.08462
-35.9123
21.8733
-4.81862
-29.4562
24.5176
3.25726
-3.79041
-15.2453
9.13496
-2.01217
-11.1236
6.50134
-1.65834
-8.03
3.92948
-1.4706
-3.86612
-9.33223
4.01485
-1.57061
-5.71295
2.17217
-1.47441
-4.34024
1.04965
-1.51621
-3.74051
0.851979
-1.01214
-1.61525
-2.44649
-0.882459
-1.63957
-2.19445
-1.25939
-1.72139
-2.03423
-1.55926
-1.80628
-1.92086
-2.15471
-1.62768
-1.86281
-2.04762
-1.69806
-1.8634
-2.008
-1.69731
-1.81431
-1.84076
-1.8499
)
;
    }
    bottom
    {
        type            calculated;
        value           nonuniform List<scalar> 
64
(
-20.1693
-20.0731
-19.8817
-19.5975
-19.2241
-18.7664
-18.2312
-17.6271
-16.9638
-16.2525
-15.5051
-14.7337
-13.95
-13.1653
-12.3895
-11.6313
-10.898
-10.1951
-9.52685
-8.89604
-8.30422
-7.75188
-7.23864
-6.76346
-6.32479
-5.92076
-5.54928
-5.20817
-4.89524
-4.60835
-4.34549
-4.1048
-3.88457
-3.68325
-3.49947
-3.33197
-3.17963
-3.04141
-2.91632
-2.80347
-2.70196
-2.61097
-2.52966
-2.45725
-2.39295
-2.33603
-2.28578
-2.24153
-2.20265
-2.16855
-2.13872
-2.11267
-2.08997
-2.07024
-2.05316
-2.03844
-2.02585
-2.0152
-2.00632
-1.99909
-1.99341
-1.98921
-1.98644
-1.98506
)
;
    }
    defaultFaces
    {
        type            empty;
    }
}


// ************************************************************************* //
