/*--------------------------------*- C++ -*----------------------------------*\
| =========                 |                                                 |
| \\      /  F ield         | OpenFOAM: The Open Source CFD Toolbox           |
|  \\    /   O peration     | Version:  5.x                                   |
|   \\  /    A nd           | Web:      www.OpenFOAM.org                      |
|    \\/     M anipulation  |                                                 |
\*---------------------------------------------------------------------------*/
FoamFile
{
    version     2.0;
    format      ascii;
    class       volScalarField;
    location    "7";
    object      gradTx;
}
// * * * * * * * * * * * * * * * * * * * * * * * * * * * * * * * * * * * * * //

dimensions      [0 -1 0 1 0 0 0];

internalField   nonuniform List<scalar> 
2048
(
0.0221156
0.0661003
0.109322
0.151202
0.191086
0.228244
0.261917
0.291379
0.316007
0.335351
0.349184
0.35751
0.360561
0.358754
0.35265
0.342898
0.330189
0.315218
0.298646
0.281077
0.263039
0.244974
0.227235
0.210091
0.193733
0.178287
0.163822
0.150363
0.137897
0.126384
0.115764
0.105966
0.0969131
0.0885326
0.0807573
0.0735291
0.0668007
0.0605344
0.0547015
0.0492804
0.0442547
0.0396117
0.0353403
0.0314294
0.0278666
0.0246376
0.0217258
0.0191124
0.0167765
0.0146961
0.012848
0.0112087
0.00975467
0.00846278
0.0073107
0.00627735
0.00534317
0.00449038
0.00370309
0.00296729
0.00227076
0.00160286
0.000954312
0.000316894
0.0655838
0.196041
0.324292
0.448646
0.567154
0.677631
0.777781
0.865392
0.93857
0.995948
1.03683
1.06126
1.06993
1.06413
1.04555
1.01614
0.977999
0.933193
0.883702
0.831327
0.777636
0.723939
0.671276
0.620435
0.571973
0.526253
0.483471
0.443692
0.406873
0.372886
0.34155
0.312646
0.285945
0.261226
0.238288
0.216959
0.197099
0.178598
0.161372
0.145359
0.130512
0.116796
0.104178
0.0926259
0.0821052
0.0725732
0.0639807
0.0562717
0.0493845
0.0432532
0.0378092
0.0329825
0.0287032
0.0249024
0.021514
0.0184753
0.0157284
0.0132204
0.0109046
0.00873946
0.00668907
0.00472223
0.0028118
0.000933766
0.107689
0.321967
0.532809
0.737505
0.93285
1.11518
1.28057
1.42522
1.54586
1.64013
1.70686
1.74615
1.75923
1.74832
1.71632
1.66656
1.60252
1.52769
1.44535
1.35851
1.26973
1.18117
1.09452
1.01103
0.931599
0.856779
0.786871
0.721956
0.661943
0.606605
0.555623
0.508623
0.465213
0.425021
0.387713
0.353006
0.320672
0.290535
0.262461
0.236355
0.212144
0.189774
0.169198
0.150367
0.133224
0.117702
0.10372
0.0911844
0.0799947
0.0700415
0.0612117
0.0533898
0.0464606
0.0403108
0.0348312
0.0299187
0.0254781
0.021423
0.0176767
0.0141719
0.0108504
0.00766173
0.00456308
0.00151566
0.148713
0.444764
0.736458
1.0202
1.29156
1.5453
1.77571
1.97717
2.14482
2.27518
2.36658
2.4192
2.43498
2.41718
2.37006
2.2984
2.20719
2.10137
1.98557
1.86397
1.74016
1.6171
1.49707
1.38175
1.27231
1.16945
1.07355
0.984663
0.902627
0.827093
0.757583
0.693547
0.634418
0.579661
0.528807
0.481464
0.437323
0.39615
0.357771
0.322061
0.288934
0.258322
0.230169
0.204416
0.180987
0.159793
0.14072
0.12364
0.108411
0.0948811
0.0828931
0.0722868
0.0629019
0.0545812
0.0471731
0.0405346
0.0345341
0.0290526
0.0239849
0.0192393
0.0147367
0.0104095
0.00620141
0.00206046
0.188814
0.564946
0.93623
1.29836
1.64572
1.97137
2.26752
2.52638
2.74117
2.90712
3.02197
3.08614
3.1024
3.07534
3.01072
2.91497
2.79467
2.65627
2.50583
2.34872
2.18955
2.03204
1.87903
1.73254
1.59395
1.46406
1.34326
1.23155
1.12867
1.03413
0.947251
0.867283
0.79346
0.725073
0.661511
0.60228
0.546999
0.495382
0.447226
0.402389
0.360775
0.322318
0.286958
0.254631
0.22525
0.198701
0.174841
0.153505
0.134509
0.117659
0.102752
0.0895842
0.0779504
0.0676495
0.0584875
0.0502819
0.0428649
0.0360858
0.0298124
0.0239301
0.0183408
0.012961
0.00772441
0.00256737
0.22803
0.682675
1.13256
1.57291
1.99695
2.39587
2.75939
3.07704
3.3397
3.54096
3.678
3.75161
3.7657
3.72644
3.64139
3.51877
3.36691
3.19389
3.00718
2.81346
2.61833
2.42624
2.24051
2.06343
1.89649
1.74054
1.59591
1.46253
1.34002
1.22768
1.12463
1.02987
0.942406
0.861337
0.78591
0.715533
0.649761
0.588275
0.530851
0.477341
0.427652
0.381724
0.33951
0.300947
0.26594
0.234353
0.206012
0.180711
0.158226
0.138316
0.120736
0.105237
0.091569
0.0794865
0.068753
0.0591458
0.0504613
0.042518
0.0351577
0.0282447
0.0216637
0.015318
0.00913322
0.00303676
0.26628
0.797776
1.32534
1.84407
2.34612
2.82052
3.254
3.63272
3.94452
4.18106
4.3389
4.41947
4.42821
4.37328
4.26434
4.11163
3.92534
3.71523
3.49033
3.25863
3.02675
2.79985
2.5816
2.37448
2.18
1.99894
1.83156
1.67768
1.53675
1.40786
1.28987
1.18149
1.08146
0.988662
0.902202
0.821399
0.745766
0.67496
0.608753
0.546998
0.489617
0.436571
0.387835
0.343359
0.303043
0.26673
0.234211
0.205239
0.179542
0.156837
0.136833
0.119236
0.103752
0.0900914
0.0779726
0.0671328
0.0573323
0.0483594
0.0400312
0.0321928
0.0247139
0.0174866
0.0104318
0.00346994
0.303373
0.909743
1.51397
2.11144
2.69338
3.24639
3.75348
4.19645
4.55929
4.83123
5.00826
5.09286
5.09254
5.01795
4.88122
4.6948
4.47086
4.22092
3.95564
3.68441
3.41491
3.15293
2.9024
2.66583
2.44461
2.23942
2.05037
1.87716
1.71904
1.57489
1.44324
1.32245
1.21094
1.10736
1.01068
0.920139
0.835241
0.755634
0.681096
0.611496
0.546777
0.486937
0.431989
0.381905
0.336588
0.295856
0.259462
0.227109
0.198479
0.173242
0.151061
0.1316
0.11452
0.0994852
0.0861691
0.0742664
0.0635013
0.0536322
0.0444532
0.0357919
0.0275054
0.019477
0.0116261
0.00386892
0.339013
1.01776
1.69733
2.374
3.03825
3.67395
4.25947
4.77097
5.18739
5.49495
5.68923
5.77436
5.76066
5.66192
5.4931
5.26907
5.00402
4.71129
4.40324
4.09081
3.78278
3.48549
3.20301
2.93764
2.69058
2.46225
2.25262
2.06124
1.8872
1.7291
1.5851
1.45314
1.33125
1.21782
1.11169
1.01207
0.918465
0.830542
0.748096
0.671017
0.599282
0.53294
0.472061
0.416659
0.366639
0.321792
0.281821
0.246377
0.215088
0.187576
0.163463
0.142369
0.123912
0.107707
0.0933805
0.0805835
0.0690028
0.058368
0.0484514
0.0390653
0.0300562
0.0213021
0.0127239
0.00423617
0.372804
1.12073
1.87385
2.6301
3.37958
4.10312
4.77326
5.35882
5.83204
6.17546
6.38456
6.46602
6.43397
6.30606
6.10055
5.83482
5.52506
5.18641
4.83305
4.47765
4.13022
3.79754
3.48354
3.19018
2.91821
2.66777
2.43865
2.23026
2.04155
1.87087
1.7159
1.57405
1.44287
1.3205
1.20566
1.09756
0.995756
0.899963
0.809999
0.725777
0.647312
0.574724
0.508168
0.447718
0.393285
0.344622
0.301372
0.263122
0.229443
0.199909
0.174101
0.1516
0.13198
0.114807
0.0996566
0.0861308
0.0738797
0.0626048
0.0520585
0.04204
0.0323876
0.0229766
0.0137335
0.00457445
0.404265
1.21726
2.0415
2.87749
3.71558
4.53326
5.29588
5.9625
6.4965
6.87588
7.09669
7.16942
7.11327
6.95074
6.70371
6.39211
6.034
5.64618
5.24481
4.84463
4.45702
4.08903
3.74417
3.42376
3.12793
2.85643
2.60888
2.38461
2.1825
2.00062
1.83613
1.68572
1.54637
1.41592
1.29302
1.17698
1.06745
0.964195
0.867075
0.776015
0.691071
0.612453
0.54044
0.475195
0.416634
0.364453
0.31822
0.277445
0.241636
0.210323
0.18305
0.159361
0.138789
0.120848
0.105055
0.0909623
0.0781807
0.0663854
0.0553112
0.0447461
0.0345226
0.0245162
0.0146638
0.00488654
0.432846
1.30578
2.19783
3.11337
4.04379
4.9632
5.8281
6.58463
7.1842
7.59929
7.82775
7.88565
7.79885
7.5958
7.30234
6.94077
6.53074
6.09044
5.63817
5.19131
4.76288
4.35995
3.98515
3.63881
3.32025
3.02874
2.76378
2.52473
2.31045
2.11882
1.94636
1.78877
1.64233
1.5046
1.37426
1.25074
1.13388
1.02355
0.919608
0.821992
0.730781
0.646299
0.569015
0.499212
0.436804
0.381406
0.332485
0.289461
0.251775
0.218915
0.190394
0.165727
0.144409
0.125897
0.109641
0.0951372
0.0819583
0.0697554
0.058248
0.0472152
0.036485
0.0259369
0.0155235
0.00517508
0.457947
1.3845
2.34007
3.33433
4.36104
5.39121
6.37056
7.22811
7.89887
8.34879
8.5796
8.61531
8.49041
8.2406
7.89584
7.48042
7.01511
6.51898
6.01266
5.51713
5.04749
4.61033
4.20679
3.83586
3.4958
3.18531
2.90391
2.65106
2.42579
2.22593
2.04716
1.88387
1.73142
1.58714
1.44983
1.31922
1.1954
1.07834
0.967892
0.863981
0.766675
0.676442
0.594028
0.519893
0.453925
0.395615
0.344303
0.299301
0.259978
0.225789
0.196224
0.170778
0.148913
0.130026
0.113483
0.0987176
0.085267
0.0727613
0.060908
0.0494795
0.0382995
0.0272543
0.0163204
0.00544236
0.478948
1.45157
2.46515
3.53645
4.66345
5.81487
6.92374
7.89626
8.64474
9.12748
9.35373
9.35847
9.18704
8.88407
8.48338
8.01057
7.48702
6.93165
6.36771
5.82138
5.31048
4.84026
4.40952
4.01558
3.6553
3.32682
3.02984
2.76407
2.52891
2.32239
2.13918
1.97176
1.81429
1.66409
1.52021
1.38278
1.25231
1.12886
1.01222
0.90227
0.799002
0.703059
0.615607
0.537361
0.468134
0.407224
0.353821
0.307105
0.26637
0.231054
0.200634
0.174594
0.152377
0.133308
0.116653
0.101767
0.0881618
0.0754498
0.0633301
0.0515713
0.0399903
0.0284833
0.0170612
0.00569003
0.495243
1.5051
2.56984
3.71532
4.94631
6.23101
7.48799
8.59314
9.4267
9.93846
10.1513
10.1147
9.88723
9.52467
9.06387
8.53067
7.94653
7.3285
6.70269
6.10317
5.55144
5.04993
4.59386
4.17873
3.79962
3.45399
3.1422
2.86423
2.62013
2.40862
2.2231
2.05323
1.89168
1.73605
1.58585
1.44177
1.30493
1.17541
1.05288
0.937158
0.828025
0.726318
0.633864
0.551735
0.479571
0.416386
0.361193
0.31302
0.271081
0.234821
0.203717
0.177253
0.154873
0.135822
0.119224
0.104351
0.090697
0.077866
0.0655514
0.0535224
0.0415818
0.0296371
0.0177504
0.00591888
0.50627
1.5433
2.65085
3.86615
5.20411
6.63552
8.06346
9.32377
10.2506
10.7847
10.973
10.883
10.5887
10.1605
9.6361
9.04006
8.39395
7.70984
7.0168
6.36135
5.76998
5.23969
4.76046
4.32624
3.9297
3.5676
3.24165
2.952
2.69964
2.48493
2.29965
2.12918
1.96428
1.80357
1.64718
1.49647
1.35353
1.21828
1.09016
0.968966
0.854025
0.746374
0.648883
0.563125
0.488386
0.423257
0.366583
0.317202
0.274243
0.237204
0.205566
0.17883
0.156471
0.137644
0.121274
0.10653
0.0929245
0.0800527
0.0676066
0.0553641
0.0430983
0.0307274
0.0183902
0.0061285
0.511553
1.56456
2.70503
3.98387
5.43041
7.02309
8.65001
10.0946
11.1233
11.6686
11.8189
11.6619
11.2885
10.7893
10.1988
9.53802
8.83003
8.07643
7.30906
6.59437
5.96577
5.41011
4.91005
4.45915
4.04665
3.66843
3.3289
3.02787
2.76755
2.55154
2.36965
2.20061
2.0328
1.86722
1.70461
1.5471
1.39833
1.25774
1.12432
0.998033
0.877315
0.763358
0.660711
0.571636
0.494737
0.428
0.370161
0.319812
0.275985
0.238314
0.206274
0.179389
0.157234
0.138852
0.122879
0.108366
0.0948938
0.08205
0.0695266
0.057127
0.0445649
0.0317634
0.0189791
0.00631694
0.510735
1.56759
2.72947
4.06329
5.61791
7.38694
9.24696
10.9139
12.0535
12.5921
12.6885
12.4495
11.9826
11.4086
10.7508
10.0235
9.25605
8.42971
7.57812
6.80018
6.13857
5.56209
5.04338
4.57866
4.15172
3.75721
3.40473
3.09238
2.82372
2.6085
2.43405
2.26868
2.09789
1.9275
1.75852
1.59379
1.43957
1.29407
1.15557
1.02473
0.898252
0.777365
0.669338
0.577368
0.498803
0.430777
0.372101
0.321019
0.276434
0.238261
0.20593
0.178987
0.157215
0.13953
0.124123
0.109914
0.0966505
0.0838947
0.0713367
0.0588419
0.0460083
0.0327512
0.0195111
0.00648037
0.503611
1.55146
2.72175
4.09932
5.75843
7.71845
9.85272
11.7927
13.0517
13.5551
13.5808
13.2438
12.6657
12.0161
11.2912
10.4951
9.67409
8.77212
7.82209
6.97596
6.28842
5.69698
5.16111
4.68611
4.24632
3.8345
3.46999
3.14617
2.86778
2.6556
2.494
2.33476
2.16006
1.9849
1.80931
1.63655
1.47742
1.32754
1.18408
1.04948
0.917264
0.788437
0.674687
0.580428
0.500786
0.431743
0.372583
0.320998
0.275703
0.237154
0.204626
0.177665
0.156457
0.139764
0.125095
0.111221
0.0982361
0.0856211
0.0730548
0.06054
0.0474589
0.0336932
0.0199749
0.00661265
0.490147
1.51577
2.68009
4.08723
5.84304
8.00665
10.4641
12.7458
14.1312
14.5549
14.494
14.0433
13.3308
12.6094
11.8198
10.9501
10.0872
9.1075
8.03822
7.11783
6.41583
5.81679
5.26363
4.78305
4.33216
3.9006
3.52568
3.1901
2.89897
2.69229
2.55094
2.40051
2.21959
2.03986
1.85741
1.67519
1.5121
1.35848
1.20988
1.07275
0.934888
0.796533
0.676581
0.580937
0.50093
0.431032
0.371792
0.319937
0.273889
0.235098
0.202458
0.175449
0.154984
0.139651
0.125889
0.112321
0.099689
0.0872621
0.0746879
0.0622544
0.048953
0.0345866
0.0203521
0.00670513
0.470493
1.46065
2.60352
4.02296
5.86227
8.23783
11.0753
13.7927
15.3089
15.5843
15.4262
14.8475
13.9681
13.1871
12.3373
11.3842
10.5
9.44175
8.22238
7.22048
6.5221
5.92443
5.3507
4.87125
4.41134
3.95525
3.57297
3.22539
2.91603
2.71749
2.60676
2.468
2.27635
2.09283
1.90338
1.70925
1.54383
1.38732
1.23283
1.09511
0.95182
0.801496
0.674718
0.579061
0.499541
0.428741
0.369919
0.318044
0.271056
0.232201
0.199532
0.17234
0.152797
0.139304
0.126618
0.113229
0.101045
0.0888516
0.076227
0.0640222
0.0505365
0.0354211
0.0206163
0.00674643
0.444984
1.3868
2.49205
3.90346
5.80651
8.39505
11.6764
14.9598
16.6066
16.6287
16.3758
15.658
14.564
13.749
12.8465
11.7899
10.9188
9.78366
8.36842
7.27667
6.60979
6.02404
5.42093
4.9529
4.48652
3.9973
3.61341
3.25385
2.91703
2.72945
2.66402
2.53986
2.3295
2.1443
1.948
1.73785
1.57295
1.41462
1.25245
1.11727
0.968986
0.802987
0.668634
0.575038
0.497007
0.424894
0.367167
0.315558
0.267221
0.228575
0.195975
0.168307
0.149867
0.138859
0.12741
0.113928
0.102341
0.0904292
0.0776396
0.065887
0.05227
0.0361762
0.020732
0.00672264
0.414126
1.29549
2.34673
3.72705
5.66648
8.45782
12.2509
16.2829
18.053
17.6622
17.3427
16.4807
15.0986
14.2974
13.3529
12.1543
11.3526
10.1461
8.46717
7.27668
6.6834
6.1215
5.471
5.03078
4.56131
4.02419
3.64901
3.2782
2.89911
2.72545
2.72621
2.61947
2.37716
2.19493
1.99242
1.75948
1.59997
1.44122
1.26781
1.14012
0.987644
0.800414
0.657665
0.569223
0.493837
0.419397
0.363762
0.312767
0.262329
0.224342
0.19195
0.163282
0.146125
0.138487
0.128423
0.114354
0.10362
0.0920468
0.0788582
0.0679035
0.0542348
0.036816
0.0206537
0.00661786
0.378571
1.1885
2.1697
3.49372
5.43407
8.40203
12.7726
17.8097
19.686
18.6422
18.33
17.3275
15.5425
14.8384
13.8665
12.4569
11.8143
10.5472
8.50513
7.20765
6.75016
6.22495
5.49458
5.10863
4.64064
4.03119
3.68254
3.30244
2.85823
2.70146
2.79811
2.71129
2.41578
2.2457
2.03841
1.77168
1.62572
1.46835
1.27721
1.16483
1.00951
0.792812
0.640897
0.562154
0.490696
0.411966
0.35997
0.310034
0.256211
0.219647
0.187669
0.157146
0.141445
0.13841
0.129852
0.114375
0.104938
0.0937786
0.0797642
0.0701433
0.0565411
0.037282
0.0203262
0.00641522
0.339083
1.06807
1.96414
3.20545
5.10316
8.20039
13.201
19.604
21.5563
19.502
19.3471
18.22
15.8528
15.3841
14.404
12.6652
12.3217
11.0128
8.4627
7.05282
6.82117
6.34556
5.48071
5.19175
4.73147
4.01031
3.71794
3.33241
2.78875
2.65172
2.88627
2.82115
2.43946
2.29818
2.08869
1.77058
1.65155
1.49787
1.27787
1.19301
1.03691
0.778695
0.617126
0.554625
0.488463
0.402033
0.356125
0.307831
0.248535
0.214673
0.18342
0.149709
0.135629
0.138919
0.131949
0.113754
0.106379
0.0957349
0.0801654
0.0727043
0.0593387
0.0374836
0.0196855
0.00609851
0.296498
0.936724
1.73418
2.86635
4.67073
7.82356
13.4751
21.75
23.7322
20.1406
20.4137
19.1934
15.966
15.9553
14.9913
12.7295
12.9004
11.578
8.31189
6.79085
6.91265
6.49854
5.41177
5.28781
4.84355
3.94889
3.76079
3.37636
2.68299
2.56824
2.99955
2.95683
2.43886
2.35496
2.14727
1.75029
1.67961
1.53252
1.26544
1.22685
1.07298
0.755853
0.584816
0.547781
0.488288
0.388617
0.35268
0.306788
0.238735
0.209663
0.179594
0.140698
0.128387
0.140397
0.135038
0.112113
0.108073
0.0980805
0.0797647
0.0757228
0.0628286
0.0372838
0.0186623
0.00565435
0.251682
0.797211
1.48467
2.48266
4.13798
7.24229
13.5053
24.3587
26.3057
20.4096
21.5658
20.3016
15.7898
16.5859
15.6676
12.5759
13.5857
12.2903
8.01339
6.39509
7.04752
6.7043
5.26072
5.40798
4.99055
3.82769
3.81912
3.4457
2.5307
2.44012
3.14979
3.12859
2.39991
2.42021
2.22002
1.70204
1.71319
1.57626
1.23336
1.26939
1.12191
0.721094
0.542072
0.543221
0.491673
0.370153
0.350265
0.307749
0.225917
0.20496
0.176716
0.129731
0.11931
0.143345
0.139543
0.108873
0.110219
0.101058
0.0781195
0.0793911
0.0672784
0.0364808
0.017187
0.00507477
0.205489
0.652313
1.22094
2.06261
3.51138
6.43108
13.163
27.5732
29.4007
20.0967
22.8631
21.624
15.1922
17.3275
16.4901
12.0974
14.4275
13.2125
7.513
5.83304
7.25699
6.99002
4.98765
5.56855
5.19139
3.61847
3.90441
3.55579
2.31841
2.25292
3.35254
3.35003
2.30212
2.50042
2.31529
1.61312
1.75728
1.63474
1.17204
1.32492
1.18919
0.669924
0.48663
0.543122
0.500568
0.344279
0.349785
0.311848
0.208738
0.201052
0.175478
0.116287
0.107844
0.148414
0.146024
0.103185
0.113121
0.105019
0.074589
0.083981
0.0730383
0.0347838
0.0151988
0.00435987
0.158726
0.50474
0.948542
1.61607
2.80341
5.37351
12.2679
31.5775
33.1834
18.905
24.3998
23.2724
13.9873
18.2565
17.5394
11.1429
15.4946
14.426
6.73732
5.0661
7.58231
7.39155
4.53554
5.79293
5.47185
3.28097
4.03288
3.72678
2.02878
1.98776
3.62792
3.63909
2.11646
2.60547
2.44462
1.46551
1.81915
1.71581
1.06789
1.39935
1.28188
0.596154
0.415884
0.550351
0.517483
0.307575
0.352537
0.320585
0.185255
0.198638
0.176779
0.0996787
0.0932554
0.156439
0.15521
0.0938437
0.117232
0.110457
0.0682689
0.0898738
0.0805595
0.0317828
0.0126582
0.0035201
0.112125
0.357008
0.67292
1.15392
2.03292
4.06985
10.5727
36.6036
37.8745
16.4287
26.317
25.4002
11.9188
19.4819
18.9268
9.50338
16.8814
16.0339
5.58874
4.04961
8.07641
7.95571
3.82512
6.11421
5.86646
2.75928
4.22725
3.9844
1.63978
1.62053
4.00138
4.01919
1.80293
2.74986
2.62361
1.23427
1.90921
1.83015
0.902092
1.50087
1.40893
0.491439
0.326952
0.568576
0.545628
0.255246
0.360369
0.335929
0.152745
0.198712
0.181758
0.0790186
0.0745983
0.168467
0.16806
0.0791794
0.123204
0.118051
0.0579121
0.0975997
0.0904139
0.0269116
0.00956406
0.00257756
0.0663221
0.211346
0.399137
0.687387
1.22454
2.5471
7.74432
42.9406
43.7649
12.1235
28.8183
28.2118
8.63973
21.1556
20.8018
6.89689
18.7161
18.1649
3.9398
2.73346
8.80531
8.74311
2.74888
6.57827
6.42058
1.97756
4.51889
4.36069
1.12404
1.12099
4.5046
4.5208
1.30755
2.95429
2.87287
0.885516
2.04194
1.99198
0.649152
1.64066
1.58147
0.344753
0.216801
0.602361
0.589076
0.180754
0.375869
0.360416
0.10749
0.202672
0.191823
0.0531839
0.0506798
0.185798
0.185817
0.0569372
0.131957
0.128711
0.0418355
0.107886
0.103313
0.0194043
0.00597652
0.00156549
0.021845
0.0696419
0.131644
0.227186
0.407108
0.871909
3.34369
50.9436
51.2331
5.27397
32.1884
31.9726
3.69001
23.4837
23.3609
2.95012
21.1699
20.9757
1.62698
1.06342
9.84911
9.83142
1.16435
7.24745
7.19274
0.835177
4.9504
4.89456
0.448045
0.451841
5.17618
5.18304
0.559097
3.24747
3.21898
0.374295
2.23707
2.21983
0.275311
1.83373
1.81303
0.141802
0.0824377
0.657217
0.652957
0.0754056
0.402594
0.397257
0.0445334
0.212454
0.208671
0.0207831
0.0200258
0.210007
0.210081
0.024136
0.14475
0.14363
0.0178134
0.121713
0.120127
0.0082448
0.00204528
0.00052507
)
;

boundaryField
{
    left
    {
        type            calculated;
        value           uniform 0;
    }
    right
    {
        type            calculated;
        value           uniform 0;
    }
    interface
    {
        type            calculated;
        value           nonuniform List<scalar> 
64
(
0.021845
0.0696419
0.131644
0.227186
0.407108
0.871909
3.34369
50.9436
51.2331
5.27397
32.1884
31.9726
3.69001
23.4837
23.3609
2.95012
21.1699
20.9757
1.62698
1.06342
9.84911
9.83142
1.16435
7.24745
7.19274
0.835177
4.9504
4.89456
0.448045
0.451841
5.17618
5.18304
0.559097
3.24747
3.21898
0.374295
2.23707
2.21983
0.275311
1.83373
1.81303
0.141802
0.0824377
0.657217
0.652957
0.0754056
0.402594
0.397257
0.0445334
0.212454
0.208671
0.0207831
0.0200258
0.210007
0.210081
0.024136
0.14475
0.14363
0.0178134
0.121713
0.120127
0.0082448
0.00204528
0.00052507
)
;
    }
    bottom
    {
        type            calculated;
        value           nonuniform List<scalar> 
64
(
0.0221156
0.0661003
0.109322
0.151202
0.191086
0.228244
0.261917
0.291379
0.316007
0.335351
0.349184
0.35751
0.360561
0.358754
0.35265
0.342898
0.330189
0.315218
0.298646
0.281077
0.263039
0.244974
0.227235
0.210091
0.193733
0.178287
0.163822
0.150363
0.137897
0.126384
0.115764
0.105966
0.0969131
0.0885326
0.0807573
0.0735291
0.0668007
0.0605344
0.0547015
0.0492804
0.0442547
0.0396117
0.0353403
0.0314294
0.0278666
0.0246376
0.0217258
0.0191124
0.0167765
0.0146961
0.012848
0.0112087
0.00975467
0.00846278
0.0073107
0.00627735
0.00534317
0.00449038
0.00370309
0.00296729
0.00227076
0.00160286
0.000954312
0.000316894
)
;
    }
    defaultFaces
    {
        type            empty;
    }
}


// ************************************************************************* //
