/*--------------------------------*- C++ -*----------------------------------*\
| =========                 |                                                 |
| \\      /  F ield         | OpenFOAM: The Open Source CFD Toolbox           |
|  \\    /   O peration     | Version:  5.x                                   |
|   \\  /    A nd           | Web:      www.OpenFOAM.org                      |
|    \\/     M anipulation  |                                                 |
\*---------------------------------------------------------------------------*/
FoamFile
{
    version     2.0;
    format      ascii;
    class       volScalarField;
    location    "7";
    object      T;
}
// * * * * * * * * * * * * * * * * * * * * * * * * * * * * * * * * * * * * * //

dimensions      [0 0 0 1 0 0 0];

internalField   nonuniform List<scalar> 
2048
(
9.8551
9.85579
9.85716
9.85921
9.86189
9.86518
9.86902
9.87336
9.87813
9.88324
9.88861
9.89415
9.89978
9.90542
9.91099
9.91644
9.92171
9.92676
9.93156
9.93609
9.94034
9.94431
9.948
9.95141
9.95456
9.95746
9.96013
9.96258
9.96483
9.96689
9.96878
9.97051
9.97209
9.97354
9.97486
9.97606
9.97716
9.97815
9.97905
9.97986
9.98059
9.98124
9.98183
9.98235
9.98281
9.98322
9.98358
9.9839
9.98418
9.98442
9.98463
9.98482
9.98499
9.98513
9.98525
9.98536
9.98545
9.98552
9.98559
9.98564
9.98568
9.98571
9.98573
9.98574
9.57106
9.57311
9.57719
9.58324
9.59121
9.60097
9.61238
9.62527
9.63943
9.6546
9.67055
9.68701
9.70371
9.72044
9.73697
9.75311
9.76872
9.78368
9.79789
9.81129
9.82386
9.83559
9.84649
9.85657
9.86588
9.87444
9.88232
9.88955
9.89619
9.90227
9.90784
9.91294
9.91761
9.92188
9.92577
9.92932
9.93255
9.93548
9.93813
9.94053
9.94268
9.9446
9.94633
9.94786
9.94922
9.95043
9.95149
9.95243
9.95325
9.95397
9.9546
9.95515
9.95563
9.95605
9.95641
9.95672
9.95699
9.95721
9.9574
9.95755
9.95767
9.95776
9.95782
9.95785
9.2979
9.30126
9.30796
9.31791
9.331
9.34706
9.36585
9.38708
9.41039
9.43539
9.46165
9.48873
9.51621
9.5437
9.57085
9.59734
9.62293
9.64742
9.67067
9.69259
9.71312
9.73226
9.75003
9.76647
9.78163
9.79558
9.8084
9.82017
9.83096
9.84086
9.84992
9.85822
9.86581
9.87276
9.8791
9.88487
9.89013
9.89489
9.89921
9.9031
9.90659
9.90973
9.91252
9.91501
9.91722
9.91918
9.9209
9.92242
9.92375
9.92492
9.92594
9.92683
9.92761
9.92828
9.92887
9.92937
9.9298
9.93017
9.93047
9.93072
9.93091
9.93106
9.93115
9.9312
9.03435
9.039
9.04825
9.06201
9.08013
9.10237
9.12842
9.15786
9.19021
9.22489
9.26131
9.29884
9.33691
9.37494
9.41244
9.449
9.48427
9.51798
9.54994
9.58003
9.60818
9.63441
9.65872
9.68119
9.7019
9.72095
9.73844
9.7545
9.76922
9.7827
9.79506
9.80638
9.81674
9.8262
9.83485
9.84273
9.8499
9.8564
9.86227
9.86758
9.87234
9.87661
9.88041
9.8838
9.8868
9.88945
9.89179
9.89385
9.89566
9.89724
9.89862
9.89983
9.90088
9.9018
9.90259
9.90327
9.90385
9.90435
9.90476
9.9051
9.90536
9.90556
9.90569
9.90575
8.77939
8.78529
8.79704
8.81455
8.83762
8.86598
8.89922
8.93684
8.97817
9.0225
9.06902
9.11693
9.16546
9.21388
9.26157
9.30797
9.35266
9.3953
9.43567
9.47361
9.50907
9.54203
9.57257
9.60075
9.62671
9.65056
9.67246
9.69254
9.71095
9.72781
9.74326
9.75741
9.77037
9.78221
9.79302
9.80288
9.81185
9.81997
9.82733
9.83395
9.8399
9.84522
9.84997
9.85419
9.85793
9.86123
9.86414
9.8667
9.86894
9.8709
9.87261
9.87411
9.87541
9.87655
9.87753
9.87837
9.8791
9.87971
9.88023
9.88064
9.88097
9.88122
9.88138
9.88146
8.53217
8.53929
8.5535
8.57469
8.60266
8.63709
8.67753
8.72332
8.77368
8.82769
8.88434
8.94263
9.00158
9.0603
9.11803
9.1741
9.22799
9.27931
9.3278
9.37329
9.41572
9.45511
9.49154
9.52513
9.55602
9.58439
9.61041
9.63426
9.65612
9.67614
9.69448
9.71128
9.72667
9.74073
9.75358
9.76529
9.77594
9.7856
9.79433
9.80219
9.80924
9.81555
9.82117
9.82616
9.83058
9.83447
9.8379
9.84091
9.84355
9.84585
9.84787
9.84963
9.85116
9.85249
9.85364
9.85464
9.85549
9.85621
9.85682
9.85731
9.8577
9.85799
9.85818
9.85828
8.29199
8.30031
8.31692
8.34173
8.37455
8.41504
8.46269
8.51673
8.57621
8.64
8.70687
8.77559
8.84498
8.91397
8.98164
9.04723
9.11013
9.1699
9.22623
9.27897
9.32806
9.37356
9.41556
9.45423
9.48976
9.52236
9.55223
9.57959
9.60466
9.62762
9.64865
9.66792
9.68557
9.70172
9.71647
9.72991
9.74214
9.75322
9.76323
9.77224
9.78032
9.78754
9.79397
9.79966
9.8047
9.80913
9.81303
9.81645
9.81945
9.82206
9.82435
9.82634
9.82807
9.82958
9.83089
9.83202
9.83299
9.83381
9.8345
9.83506
9.8355
9.83583
9.83605
9.83616
8.05829
8.06777
8.08672
8.11508
8.1527
8.19925
8.25415
8.31655
8.38529
8.45903
8.53627
8.61553
8.69542
8.77468
8.85223
8.92721
8.99894
9.06693
9.13085
9.19054
9.24599
9.29726
9.34451
9.38796
9.42782
9.46435
9.4978
9.52843
9.55646
9.58215
9.60568
9.62725
9.64701
9.66509
9.68161
9.69667
9.71037
9.72277
9.73398
9.74406
9.75309
9.76115
9.76831
9.77465
9.78024
9.78516
9.78949
9.79327
9.79658
9.79947
9.802
9.8042
9.80611
9.80777
9.80922
9.81047
9.81154
9.81245
9.81322
9.81384
9.81433
9.8147
9.81494
9.81506
7.83062
7.84122
7.86243
7.89426
7.93661
7.9892
8.05143
8.12231
8.20052
8.28442
8.37223
8.46221
8.55268
8.64223
8.72962
8.81389
8.89428
8.97026
9.0415
9.10786
9.16934
9.22607
9.27826
9.32617
9.37007
9.41025
9.44701
9.48064
9.51142
9.53962
9.56546
9.58915
9.61087
9.63075
9.64893
9.66549
9.68055
9.6942
9.70651
9.71757
9.72748
9.7363
9.74413
9.75105
9.75715
9.76251
9.76721
9.77132
9.77491
9.77804
9.78077
9.78315
9.78522
9.78702
9.78858
9.78994
9.7911
9.79209
9.79293
9.79361
9.79415
9.79455
9.79481
9.79495
7.60862
7.62027
7.64365
7.67883
7.72584
7.78444
7.85406
7.93361
8.02152
8.11586
8.21451
8.31538
8.41657
8.51644
8.61363
8.70708
8.79597
8.87974
8.95805
9.03077
9.09797
9.15984
9.21665
9.2687
9.31634
9.3599
9.39971
9.4361
9.4694
9.4999
9.52787
9.55352
9.57706
9.59861
9.61832
9.63629
9.65262
9.66741
9.68074
9.69272
9.70342
9.71295
9.72138
9.72883
9.73538
9.74112
9.74615
9.75054
9.75437
9.75771
9.76061
9.76315
9.76535
9.76727
9.76894
9.77039
9.77163
9.77269
9.77359
9.77432
9.7749
9.77533
9.77562
9.77576
7.39203
7.40466
7.43007
7.46846
7.51999
7.58457
7.66165
7.75006
7.84798
7.95308
8.06285
8.17485
8.2869
8.39714
8.50411
8.60663
8.70386
8.7952
8.8803
8.9591
9.0317
9.09838
9.15948
9.21538
9.26647
9.31313
9.35574
9.39466
9.43025
9.46286
9.49277
9.52024
9.54545
9.56856
9.5897
9.60897
9.62648
9.64233
9.65661
9.66942
9.68086
9.69102
9.7
9.70791
9.71485
9.72093
9.72624
9.73087
9.73491
9.73842
9.74148
9.74415
9.74646
9.74848
9.75024
9.75177
9.75308
9.75421
9.75516
9.75594
9.75656
9.75702
9.75732
9.75747
7.18063
7.19416
7.22144
7.26284
7.31873
7.38921
7.47383
7.57133
7.6796
7.79584
7.91708
8.04046
8.1635
8.28417
8.40087
8.51237
8.61777
8.71646
8.8081
8.89265
8.97032
9.04149
9.10657
9.16603
9.22029
9.26978
9.31493
9.35615
9.39383
9.42835
9.46005
9.48918
9.51594
9.5405
9.56296
9.58344
9.60205
9.61888
9.63403
9.64762
9.65972
9.67045
9.67992
9.68823
9.69552
9.70188
9.70744
9.71228
9.71648
9.72014
9.72332
9.72609
9.7285
9.73061
9.73244
9.73403
9.73541
9.73659
9.73759
9.73841
9.73907
9.73955
9.73988
9.74004
6.9743
6.98861
7.01756
7.06173
7.12176
7.19802
7.29023
7.3971
7.51611
7.64394
7.77701
7.91205
8.04624
8.17737
8.30376
8.42412
8.53752
8.64334
8.74124
8.83124
8.91365
8.98897
9.05772
9.12043
9.17759
9.22968
9.27714
9.32042
9.35998
9.39623
9.42954
9.4602
9.48841
9.51431
9.53801
9.55962
9.57924
9.59697
9.61293
9.62722
9.63993
9.65118
9.66107
9.66974
9.67732
9.68393
9.68968
9.69469
9.69903
9.70281
9.70609
9.70894
9.71143
9.7136
9.71549
9.71714
9.71858
9.71981
9.72085
9.72171
9.7224
9.72291
9.72325
9.72342
6.77294
6.78791
6.8183
6.86494
6.92881
7.01067
7.11053
7.22704
7.35729
7.49719
7.64252
7.78949
7.93497
8.07659
8.2126
8.34169
8.46293
8.57566
8.67954
8.77465
8.86146
8.94061
9.01272
9.0784
9.13821
9.19263
9.24217
9.28731
9.32855
9.36634
9.40112
9.43319
9.46274
9.48989
9.51474
9.5374
9.55795
9.57653
9.59323
9.60816
9.62143
9.63313
9.6434
9.65237
9.66019
9.667
9.67292
9.67806
9.68251
9.68638
9.68973
9.69265
9.69519
9.69741
9.69936
9.70106
9.70254
9.70381
9.70489
9.70579
9.70651
9.70704
9.7074
9.70757
6.57652
6.59199
6.62355
6.6723
6.73965
6.82687
6.93437
7.06087
7.20291
7.35546
7.51349
7.67268
7.82957
7.98166
8.12722
8.26491
8.3938
8.51324
8.62282
8.72269
8.81354
8.89618
8.97135
9.03974
9.10194
9.15847
9.20987
9.25667
9.29938
9.33855
9.37465
9.40802
9.43881
9.46713
9.49306
9.51669
9.53812
9.55747
9.57485
9.59037
9.60414
9.61625
9.62683
9.63606
9.64408
9.65104
9.65709
9.66233
9.66687
9.6708
9.67421
9.67717
9.67975
9.68201
9.68399
9.68573
9.68725
9.68857
9.68969
9.69062
9.69136
9.69192
9.69228
9.69247
6.38503
6.40085
6.43325
6.48369
6.55407
6.64631
6.76143
6.8983
7.0528
7.21863
7.38982
7.56153
7.72991
7.89243
8.04743
8.19356
8.32993
8.45587
8.57086
8.67514
8.76965
8.85546
8.93339
9.00422
9.06859
9.12702
9.18008
9.22833
9.27233
9.31269
9.34998
9.38455
9.41652
9.44594
9.47288
9.49741
9.51964
9.53971
9.55772
9.57378
9.588
9.60047
9.61132
9.62074
9.62892
9.636
9.64214
9.64746
9.65206
9.65603
9.65947
9.66245
9.66506
9.66734
9.66936
9.67113
9.67269
9.67404
9.67519
9.67615
9.67692
9.6775
9.67788
9.67807
6.19849
6.21447
6.24738
6.29901
6.37188
6.46871
6.59135
6.73902
6.9068
7.08662
7.27145
7.45596
7.63588
7.80873
7.97305
8.12744
8.27111
8.40338
8.5235
8.63179
8.72957
8.81822
8.89864
8.97166
9.03799
9.09812
9.15263
9.20214
9.24725
9.28863
9.32698
9.36268
9.39575
9.42621
9.4541
9.47948
9.50245
9.52317
9.54175
9.55831
9.57294
9.58572
9.5968
9.60637
9.61466
9.62183
9.62804
9.6334
9.63803
9.64202
9.64548
9.64847
9.65108
9.65338
9.65542
9.65722
9.65881
9.66019
9.66137
9.66236
9.66316
9.66375
9.66415
9.66435
6.01695
6.03291
6.06593
6.1182
6.19291
6.29376
6.42375
6.58273
6.76481
6.9594
7.15831
7.35592
7.54736
7.73038
7.90388
8.06634
8.21712
8.35559
8.48054
8.59241
8.69305
8.78424
8.86687
8.94184
9.00995
9.07158
9.12736
9.17798
9.224
9.26622
9.30551
9.34229
9.37641
9.40785
9.43665
9.4628
9.48645
9.50779
9.52689
9.5439
9.55891
9.57197
9.58321
9.59288
9.60125
9.60847
9.61471
9.6201
9.62474
9.62874
9.63219
9.63517
9.63778
9.64009
9.64214
9.64397
9.64558
9.64699
9.6482
9.64922
9.65004
9.65065
9.65106
9.65126
5.84046
5.8562
5.88894
5.94125
6.01705
6.1212
6.25825
6.4291
6.62677
6.83697
7.05037
7.26137
7.46424
7.65717
7.83974
8.01002
8.16771
8.31234
8.44184
8.55678
8.65984
8.75329
8.83787
8.91457
8.98431
9.04727
9.10414
9.15571
9.20246
9.24533
9.28544
9.32326
9.3584
9.39077
9.42043
9.44731
9.47157
9.49348
9.51306
9.53048
9.54586
9.55914
9.57049
9.58023
9.58863
9.59588
9.60212
9.60752
9.61216
9.61614
9.61957
9.62253
9.62512
9.62742
9.62949
9.63133
9.63296
9.6344
9.63564
9.63668
9.63753
9.63817
9.63858
9.63879
5.66909
5.6844
5.71646
5.76816
5.84418
5.95075
6.09439
6.27776
6.49269
6.71936
6.94754
7.17229
7.38639
7.58888
7.78043
7.95825
8.12262
8.27347
8.40723
8.52467
8.62967
8.72516
8.81144
8.88965
8.96091
9.02503
9.08281
9.13521
9.1825
9.2258
9.26663
9.30552
9.34165
9.37488
9.40539
9.43293
9.45774
9.48018
9.50019
9.51799
9.53372
9.5472
9.55861
9.56835
9.57676
9.584
9.59023
9.59562
9.60023
9.60418
9.60758
9.6105
9.61306
9.61535
9.61742
9.61928
9.62093
9.6224
9.62366
9.62473
9.62561
9.62626
9.62669
9.6269
5.50289
5.5176
5.54854
5.59896
5.67426
5.78215
5.93169
6.12826
6.36271
6.60666
6.84972
7.08873
7.3137
7.52523
7.7258
7.91077
8.08156
8.2389
8.37661
8.49585
8.60225
8.69966
8.78739
8.86687
8.93962
9.00473
9.06322
9.11638
9.16401
9.20751
9.24893
9.28897
9.32606
9.36011
9.39146
9.41959
9.44487
9.46783
9.48823
9.50636
9.52245
9.5361
9.5475
9.55719
9.56559
9.5728
9.57899
9.58436
9.58893
9.59283
9.59618
9.59906
9.60157
9.60384
9.60592
9.60779
9.60946
9.61095
9.61224
9.61333
9.61424
9.61491
9.61535
9.61556
5.34193
5.35584
5.38527
5.43372
5.50726
5.61517
5.7696
5.98006
6.2371
6.49901
6.75674
7.01076
7.24606
7.46588
7.67571
7.86734
8.04415
8.20855
8.34989
8.47006
8.57728
8.67662
8.76553
8.84602
8.92031
8.98622
9.04523
9.09914
9.14691
9.1903
9.2322
9.27355
9.31158
9.34635
9.37858
9.40722
9.43289
9.45638
9.4771
9.49552
9.51201
9.5258
9.53711
9.54669
9.55508
9.56222
9.56836
9.5737
9.57822
9.58205
9.58536
9.58817
9.59062
9.59286
9.59496
9.59684
9.59852
9.60004
9.60134
9.60246
9.6034
9.6041
9.60453
9.60474
5.18626
5.1992
5.22674
5.27253
5.34321
5.44961
5.60752
5.83245
6.11636
6.39661
6.6683
6.93857
7.18332
7.4104
7.63012
7.82767
8.00994
8.18244
8.327
8.44704
8.5544
8.6559
8.7457
8.82687
8.90291
8.96941
9.02866
9.08344
9.13111
9.17404
9.21628
9.25923
9.29814
9.33352
9.36673
9.39578
9.42171
9.44578
9.46675
9.4854
9.50238
9.51626
9.52739
9.53681
9.54518
9.55225
9.55829
9.56361
9.56806
9.57181
9.57507
9.57781
9.58017
9.58238
9.5845
9.58639
9.58808
9.58963
9.59095
9.59209
9.59307
9.59379
9.59422
9.59443
5.03589
5.04772
5.07303
5.11552
5.18221
5.28534
5.44477
5.68448
6.00133
6.29967
6.5839
6.87248
7.12538
7.35818
7.58908
7.79151
7.97836
8.16071
8.30796
8.42649
8.5332
8.63744
8.72773
8.80914
8.88737
8.95416
9.01335
9.06924
9.11655
9.15856
9.20097
9.246
9.2857
9.3215
9.35587
9.3852
9.41124
9.436
9.45713
9.47591
9.49353
9.50746
9.5183
9.52749
9.53587
9.54282
9.54874
9.55407
9.55843
9.56208
9.5653
9.56794
9.57021
9.57236
9.57453
9.57642
9.57811
9.5797
9.58104
9.58219
9.58323
9.58396
9.58439
9.58459
4.89085
4.90144
4.92422
4.96282
5.02439
5.1223
5.28066
5.53483
5.89328
6.20846
6.50272
6.81306
7.07209
7.30846
7.55285
7.75858
7.94863
8.14364
8.29278
8.4081
8.51318
8.62126
8.71148
8.79253
8.87372
8.94039
8.99905
9.05657
9.10319
9.14372
9.18605
9.23392
9.27421
9.31015
9.34603
9.37542
9.40136
9.42703
9.44817
9.46697
9.48545
9.49937
9.50979
9.51866
9.52712
9.53392
9.53968
9.54505
9.5493
9.55282
9.55601
9.55855
9.56069
9.56279
9.56503
9.56691
9.56858
9.57023
9.57158
9.57274
9.57385
9.57459
9.57502
9.57521
4.75112
4.76039
4.78039
4.81458
4.86997
4.96054
5.11445
5.38164
5.79414
6.12327
6.42354
6.7612
7.02333
7.26013
7.52193
7.72861
7.91973
8.13175
8.28154
8.39149
8.49376
8.60751
8.69684
8.77663
8.86208
8.92799
8.98548
9.04552
9.09099
9.12936
9.17125
9.2231
9.26365
9.29931
9.33724
9.36641
9.39194
9.4189
9.43983
9.45845
9.47817
9.49198
9.50179
9.51025
9.51891
9.52551
9.53105
9.53653
9.54064
9.54399
9.54719
9.54961
9.55159
9.55362
9.55598
9.55784
9.55948
9.56121
9.56255
9.56371
9.56491
9.56567
9.56608
9.56625
4.61669
4.62455
4.6416
4.67095
4.71918
4.80026
4.9455
5.2223
5.70671
6.04435
6.34451
6.71828
6.97894
7.21171
7.49725
7.70132
7.89024
8.12588
8.27432
8.3763
8.47416
8.59653
8.68367
8.76093
8.85267
8.91688
8.97229
9.03623
9.07996
9.11532
9.15622
9.21375
9.25399
9.28874
9.32962
9.35812
9.38281
9.41166
9.43207
9.4502
9.47173
9.48526
9.49427
9.5022
9.51124
9.51756
9.52281
9.52851
9.53243
9.53557
9.53883
9.54109
9.54289
9.54482
9.54737
9.54918
9.55077
9.55263
9.55393
9.55507
9.55641
9.55717
9.55755
9.55771
4.48749
4.49392
4.50788
4.53207
4.57234
4.6418
4.77331
5.05314
5.63497
5.97192
6.26299
6.68639
6.93874
7.16114
7.48023
7.67646
7.85827
8.12732
8.27116
8.3621
8.45345
8.58888
8.67188
8.74474
8.8459
8.90697
8.95898
9.02899
9.0701
9.10144
9.1405
9.2062
9.24519
9.27815
9.32333
9.3505
9.37374
9.40541
9.42482
9.44204
9.46623
9.4792
9.48716
9.49441
9.50413
9.51005
9.51489
9.52098
9.52464
9.52751
9.53092
9.53299
9.53455
9.53636
9.53919
9.54092
9.54242
9.54446
9.5457
9.54679
9.54832
9.54907
9.54941
9.54955
4.36348
4.36844
4.37925
4.39808
4.42975
4.48569
4.59768
4.86906
5.58447
5.90604
6.17526
6.66853
6.90252
7.10564
7.47303
7.65374
7.82125
8.13795
8.27206
8.34849
8.43037
8.58544
8.66136
8.72717
8.84239
8.89817
8.94492
9.0242
9.06138
9.0876
9.1235
9.20097
9.23722
9.26711
9.31864
9.3435
9.36444
9.40035
9.41806
9.43372
9.46179
9.47378
9.48042
9.48678
9.49762
9.50295
9.50723
9.51396
9.51725
9.51975
9.52345
9.52528
9.52657
9.52819
9.53146
9.53304
9.53439
9.53671
9.53784
9.53884
9.54065
9.54136
9.54164
9.54175
4.24455
4.24805
4.25571
4.26908
4.29177
4.33261
4.41895
4.66301
5.56281
5.84659
6.07621
6.66899
6.86996
7.04145
7.47877
7.63292
7.77575
8.16046
8.27681
8.33511
8.40336
8.5875
8.65198
8.70703
8.84305
8.89036
8.92928
9.02246
9.05379
9.0737
9.10443
9.19875
9.23003
9.25509
9.31596
9.33708
9.35453
9.39674
9.41173
9.42493
9.45863
9.46896
9.47399
9.47917
9.49175
9.49623
9.49973
9.50749
9.51023
9.51226
9.51644
9.51794
9.51891
9.52027
9.52417
9.52552
9.52665
9.52937
9.53034
9.53118
9.53339
9.53401
9.53423
9.53431
4.1306
4.13268
4.13721
4.14515
4.15869
4.18342
4.23829
4.42543
5.58018
5.79308
5.95904
6.69365
6.84066
6.96364
7.50177
7.6137
7.7173
8.19858
8.28495
8.3217
8.37037
8.59686
8.64359
8.68277
8.84917
8.88341
8.91096
9.02462
9.04724
9.05975
9.08227
9.20052
9.22354
9.24138
9.31586
9.33116
9.34354
9.39497
9.40578
9.41525
9.45706
9.46467
9.46783
9.47145
9.48665
9.48986
9.4923
9.5016
9.50356
9.50496
9.5099
9.51096
9.51156
9.51254
9.51737
9.51835
9.51915
9.52247
9.52317
9.52378
9.52654
9.52701
9.52715
9.52719
4.02152
4.02221
4.0237
4.02632
4.0308
4.03904
4.05805
4.14353
5.65003
5.74457
5.81485
6.75045
6.81399
6.86577
7.54786
7.5958
7.64005
8.25735
8.29554
8.3082
8.32877
8.61598
8.636
8.65237
8.86249
8.87714
8.88858
9.03184
9.04154
9.04584
9.05566
9.2076
9.21763
9.22507
9.31911
9.32566
9.33081
9.39557
9.40018
9.40417
9.45748
9.46083
9.46192
9.46341
9.48245
9.48381
9.48481
9.49639
9.49722
9.49779
9.50386
9.50431
9.50451
9.50493
9.51108
9.5115
9.51183
9.51602
9.51632
9.51658
9.52012
9.52033
9.52038
9.5204
)
;

boundaryField
{
    left
    {
        type            zeroGradient;
    }
    right
    {
        type            zeroGradient;
    }
    interface
    {
        type            fixedValue;
        value           nonuniform List<scalar> 
64
(
3.96819
3.96819
3.96819
3.96819
3.96819
3.96819
3.96819
3.96819
5.72149
5.72149
5.72149
6.80127
6.80127
6.80127
7.58714
7.58714
7.58714
8.30139
8.30139
8.30139
8.30139
8.63239
8.63239
8.63239
8.87416
8.87416
8.87416
9.0389
9.0389
9.0389
9.0389
9.21481
9.21481
9.21481
9.32301
9.32301
9.32301
9.39746
9.39746
9.39746
9.45901
9.45901
9.45901
9.45901
9.48087
9.48087
9.48087
9.49413
9.49413
9.49413
9.50106
9.50106
9.50106
9.50106
9.50815
9.50815
9.50815
9.51297
9.51297
9.51297
9.51707
9.51707
9.51707
9.51707
)
;
    }
    bottom
    {
        type            fixedValue;
        value           uniform 10;
    }
    defaultFaces
    {
        type            empty;
    }
}


// ************************************************************************* //
