/*--------------------------------*- C++ -*----------------------------------*\
| =========                 |                                                 |
| \\      /  F ield         | OpenFOAM: The Open Source CFD Toolbox           |
|  \\    /   O peration     | Version:  5.x                                   |
|   \\  /    A nd           | Web:      www.OpenFOAM.org                      |
|    \\/     M anipulation  |                                                 |
\*---------------------------------------------------------------------------*/
FoamFile
{
    version     2.0;
    format      ascii;
    class       volScalarField;
    location    "7.3";
    object      gradTy;
}
// * * * * * * * * * * * * * * * * * * * * * * * * * * * * * * * * * * * * * //

dimensions      [0 -1 0 1 0 0 0];

internalField   nonuniform List<scalar> 
2048
(
-20.1808
-20.0843
-19.8923
-19.6071
-19.2322
-18.7727
-18.2352
-17.6284
-16.9621
-16.2476
-15.4968
-14.7219
-13.935
-13.1472
-12.3685
-11.6078
-10.8721
-10.1672
-9.49713
-8.86476
-8.27155
-7.71797
-7.20358
-6.72731
-6.28757
-5.88246
-5.50988
-5.16761
-4.85346
-4.5653
-4.3011
-4.05901
-3.83733
-3.63454
-3.44928
-3.28032
-3.12656
-2.98696
-2.86059
-2.74655
-2.64397
-2.55203
-2.46991
-2.39682
-2.33199
-2.27468
-2.22417
-2.17979
-2.14091
-2.10694
-2.07733
-2.0516
-2.02929
-2.01003
-1.99345
-1.97927
-1.96723
-1.9571
-1.94872
-1.94194
-1.93664
-1.93274
-1.93017
-1.9289
-20.2589
-20.1615
-19.9678
-19.6797
-19.3007
-18.8356
-18.2914
-17.6765
-17.0011
-16.2769
-15.5162
-14.7317
-13.9357
-13.1398
-12.3541
-11.5875
-10.8472
-10.1389
-9.46665
-8.83306
-8.23949
-7.68624
-7.17273
-6.69773
-6.25954
-5.85614
-5.48533
-5.14484
-4.83242
-4.54589
-4.28319
-4.04247
-3.82202
-3.62034
-3.43606
-3.268
-3.11506
-2.97623
-2.85059
-2.73724
-2.63534
-2.54405
-2.46257
-2.3901
-2.32587
-2.26913
-2.21917
-2.17531
-2.1369
-2.10337
-2.07416
-2.04878
-2.0268
-2.00781
-1.99148
-1.97751
-1.96564
-1.95566
-1.94739
-1.9407
-1.93548
-1.93163
-1.92909
-1.92783
-20.4073
-20.3083
-20.1113
-19.8179
-19.4312
-18.9558
-18.3986
-17.7682
-17.0754
-16.3325
-15.5528
-14.7498
-13.9364
-13.1249
-12.3258
-11.5481
-10.7992
-10.0846
-9.40825
-8.77245
-8.17831
-7.62581
-7.11406
-6.64157
-6.20637
-5.80627
-5.43888
-5.1018
-4.79268
-4.50924
-4.24941
-4.01127
-3.79315
-3.59353
-3.41112
-3.24475
-3.09335
-2.95596
-2.83168
-2.71964
-2.61901
-2.52896
-2.44869
-2.3774
-2.31431
-2.25867
-2.20974
-2.16685
-2.12935
-2.09664
-2.06819
-2.04349
-2.0221
-2.00365
-1.98777
-1.97419
-1.96265
-1.95294
-1.9449
-1.93838
-1.93329
-1.92953
-1.92706
-1.92583
-20.6176
-20.5166
-20.3152
-20.0146
-19.6173
-19.1274
-18.5517
-17.8991
-17.1811
-16.4112
-15.604
-14.7742
-13.9359
-13.1021
-12.2839
-11.4906
-10.7296
-10.0063
-9.32432
-8.68567
-8.09099
-7.53981
-7.03079
-6.56203
-6.13124
-5.73591
-5.37345
-5.04127
-4.73686
-4.45784
-4.20205
-3.96756
-3.75269
-3.55597
-3.37615
-3.21211
-3.06285
-2.92747
-2.80509
-2.69489
-2.59603
-2.50773
-2.42917
-2.35954
-2.29807
-2.24397
-2.19651
-2.155
-2.11877
-2.08723
-2.05984
-2.03609
-2.01556
-1.99784
-1.98261
-1.96957
-1.95849
-1.94916
-1.94142
-1.93515
-1.93023
-1.92661
-1.92422
-1.92303
-20.8826
-20.7794
-20.573
-20.2639
-19.8537
-19.3459
-18.7467
-18.0655
-17.315
-16.5101
-15.6672
-14.8029
-13.9326
-13.0705
-12.2282
-11.4153
-10.6393
-9.90529
-9.21665
-8.57486
-7.97997
-7.43088
-6.92568
-6.46193
-6.03692
-5.6478
-5.2917
-4.96579
-4.66738
-4.39395
-4.14325
-3.91332
-3.70248
-3.50932
-3.33268
-3.17151
-3.02489
-2.89197
-2.77194
-2.66399
-2.56736
-2.48123
-2.40481
-2.33728
-2.27784
-2.22569
-2.18007
-2.14028
-2.10565
-2.07558
-2.04951
-2.02696
-2.00748
-1.99068
-1.97624
-1.96388
-1.95337
-1.9445
-1.93714
-1.93116
-1.92647
-1.923
-1.92072
-1.91958
-21.1957
-21.0903
-20.8789
-20.5608
-20.1363
-19.6076
-18.9805
-18.2648
-17.4744
-16.6266
-15.7401
-14.8337
-13.9249
-13.0288
-12.1578
-11.322
-10.5286
-9.78249
-9.0866
-8.44178
-7.84732
-7.30133
-6.80116
-6.34378
-5.92594
-5.54442
-5.19603
-4.87767
-4.58645
-4.31968
-4.07498
-3.85037
-3.64419
-3.45514
-3.28212
-3.12423
-2.98062
-2.85053
-2.7332
-2.62788
-2.53382
-2.45024
-2.37634
-2.31128
-2.25423
-2.20438
-2.16094
-2.12319
-2.09044
-2.06208
-2.03757
-2.01641
-1.99816
-1.98244
-1.96893
-1.95735
-1.94748
-1.93915
-1.93222
-1.92657
-1.92213
-1.91885
-1.91668
-1.9156
-21.5509
-21.4437
-21.2278
-20.901
-20.4615
-19.9099
-19.2509
-18.4948
-17.6573
-16.7585
-15.8204
-14.8646
-13.9108
-12.9756
-12.0721
-11.2104
-10.3977
-9.63855
-8.93525
-8.2879
-7.69483
-7.15319
-6.65945
-6.20984
-5.80059
-5.42802
-5.08862
-4.77903
-4.49609
-4.23693
-3.99904
-3.78038
-3.57936
-3.3948
-3.22575
-3.07143
-2.93111
-2.80413
-2.68977
-2.58736
-2.49618
-2.41546
-2.3444
-2.28215
-2.22783
-2.18059
-2.13961
-2.10416
-2.07353
-2.04711
-2.02435
-2.00476
-1.98788
-1.97336
-1.96088
-1.95016
-1.94101
-1.93327
-1.9268
-1.92151
-1.91735
-1.91426
-1.91221
-1.91119
-21.9425
-21.8343
-21.6152
-21.2808
-20.8266
-20.2508
-19.5564
-18.754
-17.8619
-16.9037
-15.9057
-14.8932
-13.8885
-12.9094
-11.9699
-11.08
-10.2466
-9.47393
-8.76349
-8.11449
-7.52413
-6.98835
-6.50258
-6.06223
-5.66294
-5.30063
-4.97146
-4.67177
-4.39816
-4.14748
-3.91709
-3.70488
-3.50938
-3.32957
-3.16469
-3.01413
-2.8773
-2.75361
-2.64244
-2.54316
-2.45509
-2.3775
-2.30957
-2.25042
-2.19912
-2.15477
-2.11652
-2.08359
-2.05529
-2.031
-2.01015
-1.99226
-1.97689
-1.96367
-1.95229
-1.94251
-1.93412
-1.927
-1.92102
-1.91611
-1.91223
-1.90934
-1.90742
-1.90646
-22.3648
-22.2568
-22.0366
-21.6969
-21.2296
-20.6291
-19.8962
-19.0416
-18.0866
-17.0601
-15.9937
-14.9172
-13.8558
-12.8288
-11.8503
-10.9304
-10.0754
-9.28901
-8.57209
-7.92275
-7.33675
-6.80858
-6.33246
-5.9029
-5.51494
-5.16413
-4.84634
-4.55765
-4.29432
-4.05295
-3.83063
-3.62526
-3.43549
-3.26055
-3.09993
-2.95323
-2.82
-2.69973
-2.59189
-2.4959
-2.41113
-2.33689
-2.27235
-2.21657
-2.16856
-2.12735
-2.09205
-2.06185
-2.03605
-2.01403
-1.99523
-1.97917
-1.9654
-1.95356
-1.94335
-1.93454
-1.92695
-1.92046
-1.91499
-1.91047
-1.90687
-1.90418
-1.90239
-1.90149
-22.8124
-22.7063
-22.4879
-22.1465
-21.6688
-21.0443
-20.2703
-19.3572
-18.3304
-17.2258
-16.082
-14.9342
-13.8107
-12.732
-11.7124
-10.7611
-9.88395
-9.08411
-8.36176
-7.71378
-7.13418
-6.61562
-6.15093
-5.73368
-5.35836
-5.02023
-4.71491
-4.43822
-4.18612
-3.9548
-3.74107
-3.54278
-3.35881
-3.18873
-3.03235
-2.88952
-2.75993
-2.64317
-2.53874
-2.44614
-2.36482
-2.29411
-2.23319
-2.18104
-2.13657
-2.09872
-2.06655
-2.03925
-2.0161
-1.99648
-1.97984
-1.96569
-1.9536
-1.9432
-1.93421
-1.9264
-1.91963
-1.91379
-1.90881
-1.90468
-1.90136
-1.89886
-1.8972
-1.89636
-23.2797
-23.1776
-22.9651
-22.6267
-22.143
-21.4966
-20.6793
-19.701
-18.5923
-17.3987
-16.168
-14.9415
-13.751
-12.6178
-11.5552
-10.5718
-9.67235
-8.85954
-8.13314
-7.48868
-6.91789
-6.41117
-5.95977
-5.55632
-5.19486
-4.87045
-4.57861
-4.3149
-4.07493
-3.8544
-3.64969
-3.45858
-3.28032
-3.11495
-2.9627
-2.82368
-2.69773
-2.58448
-2.48351
-2.39437
-2.31657
-2.24956
-2.19248
-2.1442
-2.10349
-2.06921
-2.04035
-2.01608
-1.99568
-1.97856
-1.96416
-1.95201
-1.94166
-1.93276
-1.925
-1.91821
-1.91225
-1.90705
-1.90258
-1.89881
-1.89576
-1.89345
-1.89191
-1.89113
-23.7611
-23.6657
-23.4639
-23.135
-22.6515
-21.9867
-21.1247
-20.0737
-18.8714
-17.5767
-16.2488
-14.9364
-13.6746
-12.4847
-11.3783
-10.3623
-9.44074
-8.61562
-7.88683
-7.24852
-6.68938
-6.19693
-5.76073
-5.37251
-5.02595
-4.7162
-4.43874
-4.18892
-3.962
-3.75302
-3.55768
-3.37368
-3.20088
-3.03994
-2.89159
-2.75627
-2.63393
-2.52419
-2.42668
-2.34099
-2.26677
-2.20358
-2.15055
-2.10638
-2.06966
-2.03912
-2.01371
-1.99258
-1.97503
-1.96048
-1.94839
-1.93829
-1.92974
-1.92235
-1.91585
-1.91007
-1.90492
-1.90035
-1.89635
-1.89294
-1.89014
-1.888
-1.88657
-1.88585
-24.2511
-24.1655
-23.9803
-23.6688
-23.1938
-22.5162
-21.609
-20.4767
-19.1669
-17.7572
-16.3215
-14.916
-13.5794
-12.3316
-11.1811
-10.133
-9.18947
-8.35261
-7.62334
-6.99438
-6.45023
-5.97465
-5.55553
-5.18383
-4.85301
-4.55868
-4.2964
-4.06135
-3.84844
-3.65182
-3.46614
-3.28901
-3.12121
-2.9643
-2.81954
-2.68778
-2.56899
-2.46273
-2.36865
-2.28639
-2.21572
-2.15643
-2.10768
-2.06789
-2.03538
-2.00874
-1.98689
-1.96897
-1.95433
-1.9424
-1.93267
-1.92468
-1.91795
-1.9121
-1.90685
-1.90207
-1.89771
-1.89375
-1.8902
-1.88711
-1.88454
-1.88256
-1.88123
-1.88056
-24.744
-24.6717
-24.5099
-24.2254
-23.7695
-23.0873
-22.1356
-20.9122
-19.4778
-17.9372
-16.3825
-14.8771
-13.4634
-12.1579
-10.9637
-9.88403
-8.91907
-8.0707
-7.34305
-6.72737
-6.20213
-5.7461
-5.34587
-4.99181
-4.67731
-4.39896
-4.15258
-3.93307
-3.73522
-3.55191
-3.37616
-3.20538
-3.04192
-2.88851
-2.74696
-2.61859
-2.50334
-2.4005
-2.30979
-2.23087
-2.16366
-2.10836
-2.06413
-2.02901
-2.0009
-1.97832
-1.96011
-1.94545
-1.93374
-1.92447
-1.91713
-1.91127
-1.90642
-1.90211
-1.89809
-1.89428
-1.89068
-1.88729
-1.88417
-1.88138
-1.879
-1.87715
-1.87592
-1.8753
-25.2342
-25.1788
-25.0482
-24.802
-24.3786
-23.703
-22.7091
-21.3831
-19.8025
-18.1131
-16.4281
-14.8163
-13.3245
-11.9629
-10.7262
-9.61635
-8.63036
-7.76996
-7.0461
-6.44865
-5.94696
-5.5131
-5.13341
-4.79792
-4.49992
-4.23795
-4.00809
-3.80478
-3.62316
-3.45439
-3.28879
-3.12349
-2.96349
-2.81296
-2.67412
-2.54902
-2.43733
-2.33783
-2.25043
-2.17474
-2.11078
-2.0595
-2.02012
-1.98998
-1.96648
-1.94806
-1.93357
-1.92216
-1.9134
-1.9068
-1.90187
-1.89817
-1.89522
-1.89246
-1.88964
-1.88676
-1.88388
-1.88103
-1.8783
-1.87577
-1.87354
-1.87181
-1.87066
-1.8701
-25.7161
-25.6817
-25.5904
-25.3953
-25.0206
-24.3667
-23.3358
-21.8933
-20.1387
-18.2803
-16.4547
-14.7299
-13.161
-11.7471
-10.469
-9.33111
-8.32458
-7.45014
-6.73229
-6.15948
-5.68688
-5.27743
-4.91976
-4.60363
-4.32175
-4.07637
-3.86361
-3.67697
-3.51294
-3.36034
-3.20513
-3.04391
-2.88622
-2.73793
-2.6012
-2.47931
-2.3713
-2.27501
-2.19089
-2.11826
-2.05719
-2.00996
-1.97582
-1.95107
-1.93234
-1.91818
-1.90743
-1.89925
-1.89341
-1.88949
-1.88695
-1.88546
-1.88444
-1.88323
-1.88155
-1.87956
-1.87736
-1.875
-1.87263
-1.87031
-1.8682
-1.86654
-1.86548
-1.86498
-26.1846
-26.1749
-26.1315
-26.0015
-25.6948
-25.0827
-24.0238
-22.4485
-20.4828
-18.4333
-16.4583
-14.6138
-12.9712
-11.5112
-10.1929
-9.02992
-8.00361
-7.1105
-6.40091
-5.86127
-5.42447
-5.04085
-4.70643
-4.41039
-4.14347
-3.9148
-3.71979
-3.54985
-3.40505
-3.27094
-3.12639
-2.96702
-2.8103
-2.66366
-2.52825
-2.40963
-2.30561
-2.2123
-2.13145
-2.06174
-2.00294
-1.95973
-1.93141
-1.91254
-1.89869
-1.88884
-1.88187
-1.87681
-1.87386
-1.87262
-1.87244
-1.87317
-1.87415
-1.87449
-1.87387
-1.87269
-1.87113
-1.86922
-1.86717
-1.86504
-1.86297
-1.86137
-1.8604
-1.85996
-26.6346
-26.6534
-26.6661
-26.6162
-26.3998
-25.8555
-24.7834
-23.0562
-20.8285
-18.565
-16.4361
-14.463
-12.7536
-11.2577
-9.8982
-8.71486
-7.6703
-6.74953
-6.0505
-5.55575
-5.16294
-4.80486
-4.49483
-4.21981
-3.96542
-3.75362
-3.57729
-3.42332
-3.29976
-3.18746
-3.05396
-2.89296
-2.7357
-2.5904
-2.45517
-2.3401
-2.24066
-2.14985
-2.07238
-2.00551
-1.94798
-1.90875
-1.88705
-1.87468
-1.8657
-1.86019
-1.85702
-1.85492
-1.85481
-1.85625
-1.85838
-1.86135
-1.86442
-1.8663
-1.86661
-1.86618
-1.86523
-1.86371
-1.86196
-1.85997
-1.85786
-1.85628
-1.85542
-1.85507
-27.0616
-27.1121
-27.1888
-27.2342
-27.1333
-26.6896
-25.6278
-23.7275
-21.1659
-18.6668
-16.3868
-14.2714
-12.5071
-10.9905
-9.58457
-8.38846
-7.32908
-6.36439
-5.6786
-5.24513
-4.90646
-4.57048
-4.28612
-4.03378
-3.78746
-3.59308
-3.43695
-3.29683
-3.19703
-3.11142
-2.98962
-2.82146
-2.66219
-2.51851
-2.38164
-2.27078
-2.17695
-2.08771
-2.01396
-1.95002
-1.8921
-1.85682
-1.84293
-1.83784
-1.8335
-1.83236
-1.83304
-1.8336
-1.8363
-1.84045
-1.84475
-1.85002
-1.8553
-1.85874
-1.85979
-1.86004
-1.85968
-1.85846
-1.857
-1.85513
-1.85288
-1.85128
-1.85055
-1.85033
-27.4618
-27.5464
-27.6941
-27.8494
-27.8915
-27.5891
-26.5733
-24.4781
-21.4786
-18.7284
-16.3125
-14.0304
-12.2304
-10.7166
-9.25009
-8.05367
-6.98696
-5.95018
-5.28141
-4.93235
-4.66059
-4.33784
-4.08122
-3.85481
-3.60873
-3.43323
-3.30006
-3.16925
-3.09645
-3.04462
-2.93567
-2.75163
-2.58933
-2.44861
-2.30704
-2.20166
-2.11525
-2.02572
-1.95646
-1.89593
-1.83493
-1.80362
-1.79926
-1.80246
-1.80217
-1.80542
-1.81011
-1.81286
-1.81835
-1.82531
-1.83155
-1.83917
-1.84688
-1.85189
-1.85338
-1.85425
-1.8545
-1.85348
-1.85231
-1.85055
-1.84799
-1.84634
-1.8458
-1.84575
-27.8318
-27.9523
-28.1762
-28.455
-28.6688
-28.557
-27.6399
-25.3317
-21.7408
-18.737
-16.2209
-13.7275
-11.9227
-10.4472
-8.88961
-7.71386
-6.65498
-5.49874
-4.85345
-4.62147
-4.43297
-4.10543
-3.8807
-3.68654
-3.42722
-3.27398
-3.16873
-3.03854
-2.99713
-2.98929
-2.89532
-2.68163
-2.5164
-2.38185
-2.23027
-2.1327
-2.05667
-1.96339
-1.90013
-1.84424
-1.77578
-1.74869
-1.75634
-1.76913
-1.77165
-1.77944
-1.78846
-1.79259
-1.80094
-1.81092
-1.81871
-1.82877
-1.83922
-1.84585
-1.84734
-1.8488
-1.84973
-1.84872
-1.8479
-1.84629
-1.84317
-1.84144
-1.84117
-1.84136
-28.1691
-28.3263
-28.6299
-29.0432
-29.4572
-29.5937
-28.8513
-26.3242
-21.9115
-18.6784
-16.1296
-13.3433
-11.583
-10.2004
-8.49251
-7.37268
-6.35048
-4.99688
-4.38734
-4.31803
-4.2342
-3.86911
-3.68473
-3.53446
-3.2391
-3.11508
-3.04648
-2.90138
-2.89755
-2.9482
-2.87314
-2.60808
-2.44245
-2.32029
-2.14944
-2.06378
-2.00297
-1.89966
-1.84524
-1.7965
-1.71353
-1.69137
-1.71457
-1.73864
-1.74175
-1.75441
-1.76841
-1.77263
-1.78406
-1.79745
-1.80611
-1.81876
-1.83241
-1.84077
-1.84157
-1.84365
-1.84543
-1.84415
-1.84379
-1.84241
-1.83836
-1.83655
-1.83669
-1.83718
-28.4718
-28.6654
-29.05
-29.6058
-30.2465
-30.6961
-30.2344
-27.5097
-21.9277
-18.5362
-16.0715
-12.8472
-11.2105
-10.0046
-8.0391
-7.034
-6.10038
-4.42361
-3.87366
-4.02949
-4.07924
-3.62055
-3.49303
-3.40711
-3.03776
-2.95613
-2.93907
-2.75253
-2.79551
-2.9247
-2.87573
-2.52536
-2.36628
-2.26748
-2.06147
-1.99474
-1.95692
-1.83261
-1.79202
-1.7551
-1.64638
-1.63085
-1.67451
-1.7121
-1.71197
-1.73032
-1.75046
-1.75265
-1.76768
-1.78515
-1.79357
-1.80907
-1.82656
-1.83687
-1.83589
-1.83878
-1.8417
-1.83966
-1.83999
-1.83904
-1.83349
-1.83164
-1.83235
-1.83326
-28.739
-28.9677
-29.4322
-30.1342
-31.0236
-31.8557
-31.8175
-28.971
-21.6929
-18.2938
-16.102
-12.1908
-10.8047
-9.90393
-7.4956
-6.70179
-5.94589
-3.74622
-3.30124
-3.76557
-3.98918
-3.34505
-3.30492
-3.31769
-2.81231
-2.7967
-2.85566
-2.58392
-2.68805
-2.92269
-2.91275
-2.42443
-2.28651
-2.2292
-1.96143
-1.92539
-1.92276
-1.75892
-1.74072
-1.72371
-1.5715
-1.56617
-1.63689
-1.69105
-1.68139
-1.70708
-1.73535
-1.73209
-1.75174
-1.77445
-1.78078
-1.79959
-1.82181
-1.83445
-1.83004
-1.83412
-1.83872
-1.8351
-1.83652
-1.83635
-1.82842
-1.82667
-1.82819
-1.82962
-28.9704
-29.2319
-29.7726
-30.6199
-31.7732
-33.057
-33.6273
-30.8329
-21.0628
-17.9348
-16.3102
-11.2988
-10.3653
-9.96497
-6.80696
-6.38001
-5.94889
-2.9146
-2.65814
-3.53831
-3.99387
-3.0185
-3.11949
-3.28633
-2.54551
-2.63637
-2.81044
-2.38334
-2.57162
-2.9465
-2.99828
-2.29132
-2.20177
-2.21457
-1.84152
-1.85556
-1.90696
-1.67325
-1.69154
-1.70784
-1.48453
-1.49635
-1.60266
-1.67763
-1.64849
-1.68461
-1.72424
-1.71005
-1.73621
-1.76595
-1.76727
-1.79019
-1.8183
-1.83395
-1.82358
-1.82964
-1.83676
-1.83025
-1.83339
-1.83462
-1.82294
-1.82159
-1.82425
-1.82632
-29.1665
-29.4576
-30.0687
-31.0551
-32.4779
-34.2752
-35.6824
-33.2816
-19.8249
-17.4467
-16.8326
-10.0552
-9.89363
-10.2869
-5.88716
-6.07262
-6.20059
-1.85326
-1.93368
-3.36163
-4.13537
-2.60337
-2.93583
-3.34316
-2.21082
-2.47504
-2.82467
-2.13263
-2.44237
-3.00038
-3.15277
-2.10502
-2.11089
-2.23748
-1.68985
-1.78521
-1.91913
-1.56727
-1.64474
-1.71561
-1.37888
-1.42051
-1.57297
-1.6748
-1.61083
-1.66284
-1.7188
-1.68517
-1.72105
-1.76058
-1.75232
-1.78075
-1.81618
-1.83601
-1.81588
-1.82529
-1.83622
-1.82472
-1.83062
-1.83423
-1.81675
-1.81638
-1.82057
-1.82337
-29.3283
-29.6452
-30.3187
-31.4328
-33.1192
-35.4756
-37.984
-36.5919
-17.6713
-16.8242
-17.8708
-8.28672
-9.3935
-11.0139
-4.60636
-5.78366
-6.83281
-0.450503
-1.12203
-3.25011
-4.47265
-2.04333
-2.7536
-3.53224
-1.76858
-2.31322
-2.92941
-1.80519
-2.29694
-3.08766
-3.40569
-1.83471
-2.01337
-2.31839
-1.48856
-1.71455
-1.97332
-1.42839
-1.60059
-1.75875
-1.24476
-1.33825
-1.54906
-1.68667
-1.56472
-1.64171
-1.72148
-1.65534
-1.70628
-1.75968
-1.73487
-1.77115
-1.81558
-1.84153
-1.80598
-1.82105
-1.83771
-1.81795
-1.82821
-1.83575
-1.80938
-1.81104
-1.8172
-1.82083
-29.4574
-29.7959
-30.5222
-31.748
-33.6787
-36.6124
-40.5009
-41.1616
-14.1648
-16.0758
-19.714
-5.73945
-8.87352
-12.3517
-2.77443
-5.51756
-8.03229
1.45594
-0.22806
-3.2163
-5.0878
-1.25656
-2.57379
-3.9166
-1.16091
-2.15266
-3.1689
-1.36268
-2.13376
-3.20931
-3.79892
-1.4362
-1.9099
-2.4866
-1.21158
-1.64434
-2.0895
-1.23824
-1.55953
-1.85385
-1.06789
-1.25012
-1.53213
-1.71886
-1.50477
-1.62132
-1.73578
-1.61749
-1.692
-1.76513
-1.71334
-1.76136
-1.81654
-1.85178
-1.7925
-1.8169
-1.8421
-1.80912
-1.82617
-1.83995
-1.80011
-1.80561
-1.81422
-1.8187
-29.5559
-29.9113
-30.68
-31.9975
-34.1401
-37.6303
-43.1486
-47.5579
-8.6939
-15.2317
-22.7661
-2.05039
-8.3504
-14.5872
-0.120374
-5.27982
-10.0585
4.09751
0.723884
-3.26634
-6.094
-0.127235
-2.39984
-4.58435
-0.305403
-1.9972
-3.60463
-0.750723
-1.95516
-3.36165
-4.39133
-0.847403
-1.80327
-2.78307
-0.821662
-1.57625
-2.29558
-0.970558
-1.52225
-2.02393
-0.827852
-1.15843
-1.52297
-1.77905
-1.42325
-1.60197
-1.76652
-1.56719
-1.67846
-1.7795
-1.68545
-1.75148
-1.81894
-1.86853
-1.7735
-1.8129
-1.85057
-1.79702
-1.82448
-1.84791
-1.78795
-1.80021
-1.81167
-1.81699
-29.626
-29.9938
-30.7937
-32.1805
-34.4906
-38.4683
-45.7601
-56.5743
-0.419769
-14.3555
-27.5771
3.28747
-7.85357
-18.112
3.73245
-5.07796
-13.2648
7.79823
1.67751
-3.39298
-7.64573
1.50466
-2.23921
-5.656
0.912706
-1.85401
-4.32024
0.106423
-1.7704
-3.53311
-5.26437
0.0171503
-1.69948
-3.26361
-0.26681
-1.51339
-2.62959
-0.588836
-1.4899
-2.30031
-0.49598
-1.06825
-1.52149
-1.87759
-1.30945
-1.58437
-1.82026
-1.49825
-1.66613
-1.80628
-1.64802
-1.74187
-1.82242
-1.8942
-1.74627
-1.80913
-1.86475
-1.77999
-1.8231
-1.86108
-1.77145
-1.79505
-1.8096
-1.81565
-29.6702
-30.046
-30.866
-32.2984
-34.723
-39.0665
-48.0479
-69.3014
11.7892
-13.5585
-34.8798
10.9665
-7.43157
-23.4506
9.2956
-4.92306
-18.124
13.0033
2.52766
-3.56548
-9.95138
3.85548
-2.10535
-7.29286
2.64973
-1.73522
-5.42704
1.3125
-1.60008
-3.69963
-6.52909
1.27291
-1.60926
-4.00261
0.52394
-1.46107
-3.14241
-0.0433998
-1.46437
-2.72477
-0.0328192
-0.98895
-1.52598
-2.02834
-1.14881
-1.56974
-1.9057
-1.40215
-1.65587
-1.85003
-1.59662
-1.73332
-1.82613
-1.93206
-1.70717
-1.80582
-1.88677
-1.75573
-1.82196
-1.88137
-1.7486
-1.79054
-1.80801
-1.81463
-29.6913
-30.0708
-30.9006
-32.3552
-34.8368
-39.3778
-49.5555
-87.2101
29.433
-13.0188
-45.6296
21.9119
-7.16023
-31.2903
17.2487
-4.83191
-25.2566
20.3134
3.09816
-3.71589
-13.2887
7.21184
-2.02037
-9.70663
5.1141
-1.6602
-7.07044
3.00703
-1.48201
-3.81884
-8.33464
3.07288
-1.55006
-5.09733
1.64523
-1.4279
-3.90085
0.731651
-1.44889
-3.35227
0.614673
-0.936283
-1.53229
-2.24996
-0.922226
-1.56043
-2.03442
-1.26773
-1.64932
-1.9169
-1.52554
-1.72751
-1.82892
-1.98677
-1.65158
-1.80358
-1.91967
-1.72142
-1.82119
-1.91151
-1.71691
-1.78754
-1.80706
-1.81402
)
;

boundaryField
{
    left
    {
        type            calculated;
        value           nonuniform List<scalar> 
32
(
-20.1808
-20.2589
-20.4073
-20.6176
-20.8826
-21.1957
-21.5509
-21.9425
-22.3648
-22.8124
-23.2797
-23.7611
-24.2511
-24.744
-25.2342
-25.7161
-26.1846
-26.6346
-27.0616
-27.4618
-27.8318
-28.1691
-28.4718
-28.739
-28.9704
-29.1665
-29.3283
-29.4574
-29.5559
-29.626
-29.6702
-29.6913
)
;
    }
    right
    {
        type            calculated;
        value           nonuniform List<scalar> 
32
(
-1.9289
-1.92783
-1.92583
-1.92303
-1.91958
-1.9156
-1.91119
-1.90646
-1.90149
-1.89636
-1.89113
-1.88585
-1.88056
-1.8753
-1.8701
-1.86498
-1.85996
-1.85507
-1.85033
-1.84575
-1.84136
-1.83718
-1.83326
-1.82962
-1.82632
-1.82337
-1.82083
-1.8187
-1.81699
-1.81565
-1.81463
-1.81402
)
;
    }
    interface
    {
        type            calculated;
        value           nonuniform List<scalar> 
64
(
-29.6963
-30.0767
-30.9089
-32.3688
-34.8645
-39.457
-50.0449
-97.6704
39.8267
-12.8403
-52.0009
28.3328
-7.0737
-35.9326
21.9192
-4.8048
-29.479
24.5805
3.28627
-3.77426
-15.2548
9.18208
-1.99349
-11.1377
6.55777
-1.63658
-8.0468
3.99633
-1.44205
-3.85996
-9.39395
4.13063
-1.53091
-5.74734
2.30197
-1.41744
-4.35093
1.18593
-1.44418
-3.72457
0.992069
-0.919064
-1.53522
-2.38116
-0.789764
-1.55749
-2.11127
-1.18939
-1.64725
-1.95702
-1.48429
-1.72559
-1.82993
-2.01903
-1.61905
-1.80285
-1.9393
-1.70139
-1.82095
-1.92945
-1.69853
-1.78657
-1.80678
-1.81385
)
;
    }
    bottom
    {
        type            calculated;
        value           nonuniform List<scalar> 
64
(
-20.1605
-20.0642
-19.8727
-19.5882
-19.2144
-18.7563
-18.2206
-17.6159
-16.9519
-16.2399
-15.4917
-14.7193
-13.9348
-13.1491
-12.3723
-11.613
-10.8785
-10.1745
-9.50504
-8.87299
-8.27989
-7.72623
-7.21162
-6.73502
-6.29489
-5.88934
-5.51629
-5.17357
-4.85897
-4.57038
-4.30579
-4.06334
-3.84134
-3.63826
-3.45274
-3.28355
-3.12956
-2.98977
-2.86321
-2.74898
-2.64623
-2.55412
-2.47183
-2.39858
-2.33359
-2.27613
-2.22548
-2.18097
-2.14196
-2.10787
-2.07816
-2.05233
-2.02995
-2.01061
-1.99397
-1.97973
-1.96764
-1.95748
-1.94907
-1.94226
-1.93695
-1.93303
-1.93045
-1.92918
)
;
    }
    defaultFaces
    {
        type            empty;
    }
}


// ************************************************************************* //
