/*--------------------------------*- C++ -*----------------------------------*\
| =========                 |                                                 |
| \\      /  F ield         | OpenFOAM: The Open Source CFD Toolbox           |
|  \\    /   O peration     | Version:  5.x                                   |
|   \\  /    A nd           | Web:      www.OpenFOAM.org                      |
|    \\/     M anipulation  |                                                 |
\*---------------------------------------------------------------------------*/
FoamFile
{
    version     2.0;
    format      ascii;
    class       volScalarField;
    location    "7.3";
    object      gradTx;
}
// * * * * * * * * * * * * * * * * * * * * * * * * * * * * * * * * * * * * * //

dimensions      [0 -1 0 1 0 0 0];

internalField   nonuniform List<scalar> 
2048
(
0.0221357
0.0661603
0.109421
0.151342
0.191264
0.228461
0.262172
0.29167
0.316332
0.335709
0.349571
0.357925
0.361001
0.359218
0.353135
0.343403
0.330713
0.31576
0.299207
0.281656
0.263638
0.245593
0.227875
0.210753
0.194419
0.178996
0.164554
0.151117
0.138671
0.127174
0.116567
0.106776
0.0977239
0.0893371
0.0815476
0.0742972
0.0675385
0.061234
0.0553556
0.0498825
0.0447995
0.0400948
0.0357585
0.0317808
0.0281505
0.0248544
0.0218769
0.0192
0.016804
0.0146676
0.0127686
0.0110845
0.00959265
0.00827083
0.00709751
0.00605216
0.00511552
0.00426977
0.00349863
0.00278736
0.00212267
0.00149261
0.000886341
0.00029393
0.065643
0.196219
0.324588
0.449059
0.567683
0.678274
0.778535
0.866253
0.939533
0.997006
1.03798
1.06249
1.07124
1.0655
1.04698
1.01764
0.979548
0.934796
0.885359
0.833039
0.779405
0.725767
0.673168
0.622393
0.573999
0.528348
0.485635
0.445922
0.409162
0.375226
0.343928
0.315046
0.288348
0.263611
0.240631
0.219236
0.199286
0.180672
0.163311
0.147144
0.132127
0.118226
0.105415
0.0936655
0.0829443
0.073213
0.0644253
0.0565281
0.0494623
0.0431648
0.0375696
0.0326096
0.0282177
0.0243279
0.0208762
0.0178017
0.0150475
0.0125607
0.0102932
0.00820149
0.00624636
0.00439265
0.00260862
0.000865122
0.107785
0.322257
0.533292
0.73818
0.933716
1.11623
1.2818
1.42663
1.54743
1.64186
1.70874
1.74816
1.76136
1.75057
1.71867
1.669
1.60505
1.5303
1.44806
1.3613
1.27262
1.18416
1.09761
1.01423
0.934906
0.860201
0.790407
0.725602
0.665689
0.610436
0.559519
0.512557
0.469155
0.428935
0.39156
0.356745
0.324264
0.29394
0.265644
0.239283
0.214791
0.192118
0.171224
0.152066
0.134594
0.118743
0.10444
0.0915951
0.0801115
0.0698845
0.0608054
0.0527635
0.0456482
0.0393509
0.0337665
0.0287949
0.0243425
0.0203229
0.0166574
0.0132751
0.0101124
0.00711246
0.00422447
0.00140126
0.148846
0.445162
0.73712
1.02113
1.29275
1.54675
1.77741
1.97911
2.14699
2.27757
2.36917
2.42197
2.43791
2.42027
2.37328
2.30175
2.21066
2.10496
1.98927
1.86779
1.74411
1.62118
1.50129
1.38612
1.27684
1.17415
1.0784
0.989669
0.907775
0.832363
0.762948
0.69897
0.639855
0.585063
0.534118
0.486629
0.442285
0.400853
0.362165
0.326101
0.292582
0.26155
0.232956
0.206748
0.182863
0.161213
0.141696
0.124187
0.108551
0.0946418
0.0823076
0.0713948
0.0617503
0.0532235
0.0456687
0.0389477
0.0329311
0.0275
0.0225466
0.0179742
0.013696
0.00963498
0.00572401
0.00189915
0.188982
0.565447
0.937065
1.29953
1.64722
1.9732
2.26967
2.52883
2.74392
2.91014
3.02524
3.08964
3.10611
3.07924
3.01479
2.91919
2.79904
2.66079
2.51048
2.35352
2.19451
2.03717
1.88433
1.73804
1.59965
1.46997
1.34937
1.23786
1.13518
1.04079
0.954043
0.874157
0.800359
0.731932
0.66826
0.608845
0.553305
0.501358
0.452806
0.407516
0.365401
0.326404
0.290479
0.257572
0.227607
0.200479
0.176052
0.15417
0.134655
0.11732
0.10197
0.0884089
0.0764409
0.0658739
0.0565224
0.0482102
0.0407729
0.0340603
0.0279366
0.0222805
0.0169841
0.0119517
0.00710235
0.00235718
0.22823
0.683274
1.13356
1.57431
1.99875
2.39807
2.76197
3.08
3.34301
3.54461
3.68195
3.75583
3.77016
3.73112
3.64627
3.52383
3.37215
3.19929
3.01275
2.8192
2.62426
2.43237
2.24684
2.06999
1.9033
1.7476
1.60323
1.47011
1.34783
1.2357
1.13281
1.03816
0.95074
0.869631
0.794076
0.723478
0.657394
0.595507
0.537601
0.483536
0.433234
0.386647
0.343743
0.304473
0.268755
0.236465
0.207436
0.181473
0.158358
0.137858
0.119738
0.103757
0.089678
0.0772674
0.0662996
0.0565606
0.0478518
0.0399921
0.0328192
0.0261889
0.0199736
0.014061
0.00835872
0.00277506
0.26651
0.798468
1.3265
1.84569
2.34821
2.82308
3.25701
3.63617
3.94838
4.18531
4.3435
4.42438
4.4334
4.37872
4.27001
4.1175
3.9314
3.72148
3.49677
3.26526
3.03359
2.80691
2.58891
2.38206
2.18787
2.00711
1.84003
1.68646
1.54582
1.41719
1.29942
1.19118
1.09121
0.998375
0.911771
0.830714
0.754714
0.683436
0.616657
0.554246
0.496137
0.44231
0.392758
0.347447
0.306293
0.269152
0.235826
0.206077
0.17964
0.15624
0.135597
0.117427
0.101453
0.0873987
0.0749983
0.064
0.0541709
0.0453003
0.0372001
0.029705
0.0226695
0.0159667
0.00949558
0.00315363
0.303633
0.910524
1.51527
2.11328
2.69575
3.2493
3.75691
4.20038
4.5637
4.83608
5.0135
5.09845
5.09845
5.02414
4.88765
4.70146
4.47772
4.22798
3.9629
3.69188
3.42261
3.16088
2.91064
2.67437
2.45349
2.24864
2.05996
1.88711
1.72934
1.58551
1.45412
1.33351
1.22208
1.11848
1.02164
0.930817
0.845499
0.765347
0.690148
0.619784
0.55422
0.493474
0.43758
0.386532
0.340249
0.298567
0.261247
0.228003
0.198523
0.172485
0.149565
0.129438
0.111784
0.0962861
0.0826373
0.0705474
0.0597491
0.0500025
0.0410955
0.0328428
0.0250831
0.0176772
0.0105179
0.00349455
0.3393
1.01862
1.69878
2.37604
3.04088
3.67719
4.2633
4.77537
5.19232
5.50038
5.6951
5.78062
5.76727
5.66883
5.50027
5.27648
5.01164
4.71912
4.41128
4.09907
3.79129
3.49428
3.21211
2.94709
2.7004
2.47248
2.26327
2.07231
1.89868
1.74097
1.59729
1.46556
1.34378
1.23034
1.12405
1.02411
0.930032
0.841489
0.758289
0.680338
0.607636
0.540258
0.4783
0.421802
0.370688
0.324767
0.283753
0.247305
0.215058
0.186641
0.161686
0.139829
0.120709
0.103966
0.0892517
0.0762359
0.064617
0.0541266
0.0445296
0.0356228
0.0272307
0.0192041
0.0114327
0.0038001
0.373116
1.12166
1.87543
2.63232
3.38247
4.10668
4.77749
5.36368
5.8375
6.18147
6.39106
6.47295
6.44126
6.31368
6.10845
5.84296
5.53342
5.19497
4.84183
4.48666
4.1395
3.80712
3.49346
3.20048
2.92893
2.67895
2.4503
2.24241
2.05418
1.88395
1.72937
1.58781
1.45679
1.33443
1.21941
1.11096
1.00863
0.912145
0.821331
0.736123
0.656565
0.582807
0.515035
0.453353
0.397698
0.347838
0.30343
0.264066
0.229322
0.198778
0.172024
0.148658
0.12828
0.110488
0.0948885
0.0811092
0.0688143
0.0577077
0.047533
0.0380704
0.0291321
0.0205613
0.0122481
0.00407295
0.4046
1.21827
2.04319
2.8799
3.71871
4.53713
5.30049
5.96782
6.50249
6.88247
7.10381
7.177
7.12125
6.95905
6.71231
6.40096
6.04306
5.65545
5.25429
4.85434
4.46701
4.09934
3.75486
3.43486
3.1395
2.86851
2.62149
2.39779
2.19624
2.01489
1.85087
1.70082
1.56167
1.43124
1.30818
1.19176
1.08164
0.977616
0.879546
0.787383
0.701214
0.621283
0.547913
0.481298
0.421384
0.367886
0.320381
0.278385
0.241408
0.208981
0.180656
0.155996
0.134563
0.115914
0.0996042
0.0852189
0.0723871
0.0607864
0.0501403
0.0402142
0.0308094
0.0217643
0.0129729
0.00431594
0.4332
1.30684
2.19963
3.11593
4.04714
4.96738
5.83309
6.59041
7.19071
7.60646
7.83549
7.89387
7.80749
7.60478
7.31161
6.95029
6.54048
6.10038
5.64831
5.20168
4.77354
4.37095
3.99655
3.65067
3.33262
3.04167
2.77731
2.53889
2.32525
2.13425
1.96234
1.80519
1.65902
1.52134
1.39082
1.26689
1.1494
1.03821
0.93322
0.834379
0.741802
0.655861
0.57707
0.505757
0.441866
0.385031
0.334729
0.290381
0.251427
0.217352
0.187671
0.16192
0.139629
0.120309
0.103461
0.088622
0.0753858
0.0634062
0.0523886
0.0420849
0.0322865
0.0228294
0.0136163
0.00453195
0.458317
1.38561
2.34196
3.33703
4.36461
5.39567
6.37592
7.23434
7.9059
8.35653
8.58795
8.62417
8.4997
8.25025
7.90579
7.4906
7.0255
6.52955
6.02342
5.52812
5.05877
4.62197
4.21886
3.84843
3.50891
3.19904
2.9183
2.66616
2.44162
2.24249
2.06438
1.90162
1.74948
1.60529
1.46781
1.33676
1.21225
1.09425
0.982649
0.877385
0.778568
0.686719
0.602643
0.526854
0.459272
0.399407
0.346608
0.300185
0.2595
0.223996
0.193164
0.166514
0.143554
0.123746
0.106527
0.0913786
0.0778631
0.0656125
0.0543165
0.0437145
0.033588
0.0237729
0.014187
0.00472362
0.479333
1.45272
2.46712
3.53928
4.6672
5.8196
6.92947
7.90295
8.6523
9.1358
9.36269
9.36797
9.19698
8.89437
8.49397
8.0214
7.49804
6.94283
6.37906
5.83295
5.32233
4.85249
4.4222
4.0288
3.66912
3.3413
3.04504
2.78006
2.54573
2.34005
2.15762
1.99082
1.83375
1.68367
1.53962
1.40172
1.27051
1.14604
1.02813
0.91669
0.811757
0.714032
0.624756
0.544708
0.473737
0.411158
0.356166
0.307939
0.265754
0.229029
0.197233
0.169863
0.146414
0.126299
0.108872
0.0935511
0.0798727
0.0674508
0.0559623
0.0451353
0.0347388
0.0246108
0.014693
0.00489322
0.495637
1.50628
2.57186
3.71825
4.95024
6.236
7.49407
8.60028
9.43479
9.94736
10.1609
10.1248
9.8978
9.53561
9.0751
8.54212
7.95816
7.34026
6.71459
6.11526
5.56381
5.0627
4.60712
4.19256
3.81408
3.46917
3.15816
2.88105
2.63787
2.42734
2.24274
2.07362
1.91253
1.75706
1.6067
1.46212
1.32448
1.19386
1.06995
0.952598
0.841636
0.737968
0.643519
0.559437
0.4854
0.420434
0.363558
0.31379
0.270323
0.232568
0.199978
0.17205
0.148286
0.128044
0.110567
0.095202
0.0814675
0.068966
0.0573636
0.0463796
0.035764
0.0253582
0.0151408
0.00504235
0.506671
1.5445
2.65292
3.86917
5.20817
6.64074
8.06989
9.33136
10.2592
10.7941
10.9831
10.8937
10.5999
10.1721
9.64796
9.05213
8.40617
7.72215
7.02921
6.37391
5.78284
5.25296
4.77424
4.34063
3.94477
3.58343
3.25832
2.9696
2.71828
2.50468
2.32048
2.1509
1.98655
1.82605
1.66949
1.51824
1.37444
1.23801
1.10839
0.985428
0.868485
0.75868
0.659012
0.571148
0.494409
0.427393
0.368946
0.317897
0.273342
0.23473
0.2015
0.173156
0.149243
0.129057
0.111687
0.0963931
0.082699
0.0702006
0.058556
0.0474793
0.0366889
0.0260288
0.0155351
0.00517174
0.511957
1.56577
2.70711
3.98694
5.43459
7.02852
8.65678
10.1026
11.1325
11.6787
11.8297
11.6733
11.3004
10.8015
10.2113
9.55068
8.84282
8.08927
7.32193
6.60736
5.97905
5.42383
4.92431
4.47406
4.06229
3.68486
3.34623
3.0462
2.78701
2.57229
2.39167
2.22367
2.05649
1.89117
1.72839
1.57031
1.42063
1.27877
1.14372
1.01552
0.892621
0.776297
0.671277
0.579944
0.500923
0.432195
0.372499
0.32042
0.274944
0.235633
0.201899
0.173255
0.14935
0.129414
0.112307
0.097184
0.0836161
0.0711949
0.0595721
0.048466
0.0375391
0.0266347
0.0158777
0.00528094
0.511138
1.56878
2.73155
4.06638
5.62218
7.39257
9.25406
10.9224
12.0633
12.6028
12.6999
12.4615
11.9951
11.4214
10.7639
10.0368
9.26942
8.44307
7.59141
6.81356
6.15224
5.57622
5.05808
4.59405
4.16787
3.7742
3.42267
3.11137
2.84394
2.63019
2.45726
2.29309
2.12302
1.95294
1.78378
1.61844
1.46325
1.31639
1.17615
1.04326
0.914403
0.790911
0.680301
0.585922
0.505119
0.435002
0.374391
0.321528
0.275257
0.235393
0.201274
0.172411
0.148666
0.129196
0.112506
0.0976306
0.0842642
0.0719862
0.0604401
0.0493711
0.0383416
0.0271855
0.0161673
0.00536801
0.504009
1.55264
2.7238
4.1024
5.76274
7.72423
9.86014
11.8018
13.0621
13.5664
13.5928
13.2565
12.6788
12.0295
11.3049
10.5089
9.68802
8.78597
7.83577
6.98966
6.30243
5.71147
5.17621
4.70196
4.26297
3.852
3.48849
3.16577
2.88869
2.67819
2.5184
2.36055
2.18665
2.01185
1.83608
1.66263
1.5025
1.35118
1.20584
1.06905
0.934265
0.802559
0.685998
0.589186
0.507201
0.435968
0.3748
0.321396
0.274398
0.234124
0.199725
0.170677
0.147238
0.128482
0.112367
0.0977826
0.084685
0.0726087
0.0611826
0.0502264
0.039126
0.0276877
0.0163978
0.00542926
0.490535
1.51691
2.68209
4.09027
5.84736
8.01256
10.4718
12.7553
14.1422
14.5669
14.5067
14.0566
13.3444
12.6234
11.834
10.9645
10.1017
9.12183
8.05223
7.13179
6.43013
5.83161
5.27909
4.79932
4.34927
3.91856
3.54468
3.21024
2.92047
2.71571
2.57655
2.42772
2.24764
2.06834
1.8857
1.70269
1.53859
1.38347
1.23283
1.09339
0.952753
0.811196
0.688183
0.589857
0.507415
0.43523
0.373908
0.32021
0.272466
0.231939
0.197357
0.168091
0.145097
0.127361
0.111978
0.0976799
0.0849163
0.0730945
0.0618135
0.0510654
0.0399261
0.0281435
0.0165583
0.00545901
0.470867
1.46174
2.60545
4.02593
5.86656
8.24382
11.0833
13.8028
15.3205
15.5969
15.4396
14.8613
13.9823
13.2016
12.3521
11.3992
10.5151
9.45658
8.23667
7.23463
6.53665
5.93954
5.36647
4.88793
4.42887
3.97362
3.59246
3.24601
2.93801
2.74167
2.63362
2.49669
2.30585
2.12288
1.93321
1.73814
1.57175
1.41366
1.25694
1.11686
0.970573
0.816653
0.686542
0.588098
0.50607
0.432881
0.371902
0.318177
0.269526
0.22895
0.19429
0.164669
0.142254
0.125931
0.11144
0.0973474
0.0849929
0.0734754
0.0623349
0.0519239
0.0407826
0.0285498
0.0166312
0.00544944
0.445341
1.38783
2.49388
3.90632
5.8107
8.40106
11.6847
14.9706
16.619
16.6419
16.3898
15.6725
14.5787
13.7641
12.8619
11.8053
10.9344
9.799
8.38292
7.29092
6.62456
6.03943
5.43696
4.96997
4.50447
4.01603
3.63336
3.27491
2.93935
2.75428
2.69219
2.57009
2.36043
2.17596
1.9794
1.76808
1.60231
1.44235
1.2777
1.14015
0.988673
0.818583
0.680595
0.584148
0.503563
0.428948
0.368982
0.31553
0.265599
0.225273
0.190659
0.160399
0.138691
0.124309
0.110869
0.0967869
0.0849484
0.0737856
0.0627313
0.0528433
0.0417466
0.0288946
0.016592
0.00539074
0.414461
1.29644
2.34844
3.72975
5.67053
8.46379
12.2594
16.2944
18.0662
17.676
17.3574
16.4957
15.1136
14.3131
13.3688
12.1703
11.3689
10.1619
8.4818
7.29094
6.69837
6.13715
5.48724
5.04823
4.57967
4.04322
3.6694
3.29965
2.9216
2.7508
2.75579
2.65136
2.40945
2.22825
2.02545
1.79096
1.6308
1.47039
1.29413
1.16419
1.00834
0.816372
0.669657
0.578367
0.500413
0.423335
0.365367
0.312555
0.260629
0.221035
0.186635
0.155235
0.134356
0.122637
0.110403
0.0959651
0.0848184
0.0740665
0.0629618
0.0538728
0.0428846
0.0291547
0.0164083
0.00527153
0.37888
1.18937
2.17127
3.49624
5.43792
8.40788
12.7814
17.822
19.7
18.6566
18.3454
17.3432
15.558
14.8547
13.8831
12.4733
11.8313
10.5637
8.51978
7.22179
6.76532
6.24085
5.51094
5.1265
4.65942
4.05041
3.70341
3.32427
2.88067
2.72715
2.82927
2.74497
2.4493
2.28075
2.07314
1.80424
1.65808
1.49903
1.30448
1.19018
1.03132
0.809027
0.652791
0.571298
0.4973
0.415759
0.361313
0.309608
0.25445
0.216381
0.18244
0.149078
0.12915
0.121097
0.110209
0.094797
0.0846468
0.0743741
0.0629482
0.0550747
0.0442841
0.0292892
0.0160402
0.0050796
0.339363
1.06885
1.96556
3.20775
5.10674
8.20604
13.2099
19.6172
21.5713
19.5168
19.3632
18.2363
15.8685
15.4009
14.4211
12.6819
12.3396
11.03
8.47724
7.06668
6.83653
6.36173
5.49708
5.21007
4.7507
4.02959
3.73932
3.35463
2.81087
2.67751
2.91924
2.85684
2.47397
2.33508
2.12523
1.80397
1.68553
1.53018
1.3059
1.21975
1.06
0.795021
0.62876
0.563747
0.495122
0.405649
0.357148
0.307156
0.246735
0.211495
0.178367
0.14177
0.122916
0.119922
0.110501
0.0931219
0.0844946
0.0747886
0.0625588
0.0565307
0.0460612
0.0292327
0.0154412
0.00480321
0.296746
0.937408
1.73542
2.86839
4.67398
7.82888
13.4841
21.7644
23.7483
20.1557
20.4306
19.2104
15.9817
15.9728
15.009
12.7463
12.9192
11.5961
8.32612
6.80424
6.92829
6.51503
5.42797
5.30666
4.86329
3.96803
3.78279
3.39904
2.70443
2.59377
3.03469
2.99481
2.47398
2.39391
2.18582
1.78411
1.71534
1.56664
1.29391
1.25514
1.09761
0.772084
0.595992
0.556876
0.495056
0.392021
0.353308
0.305819
0.236922
0.206617
0.174808
0.133065
0.115419
0.11942
0.111549
0.0906726
0.0844528
0.0754275
0.0615864
0.0583511
0.0483696
0.0288846
0.0145603
0.0044327
0.251895
0.797791
1.48572
2.48441
4.14084
7.24717
13.5141
24.3744
26.3232
20.4247
21.5835
20.3195
15.8053
16.6041
15.6861
12.5925
13.6058
12.3096
8.02705
6.40774
7.06353
6.72119
5.2765
5.4275
5.01092
3.84638
3.84192
3.469
2.55103
2.46493
3.18759
3.16927
2.43502
2.46148
2.26089
1.73568
1.75092
1.61247
1.26175
1.29948
1.14843
0.73694
0.552546
0.552314
0.498637
0.373303
0.350413
0.306433
0.224127
0.202086
0.172282
0.122609
0.106336
0.119989
0.1137
0.0870335
0.0846611
0.0764632
0.0597187
0.0606879
0.0514117
0.0280956
0.0133466
0.00396246
0.205665
0.652788
1.22181
2.06407
3.51379
6.43538
13.1715
27.5907
29.4199
20.1114
22.8819
21.6429
15.2071
17.3466
16.5095
12.1134
14.449
13.2332
7.52575
5.84465
7.27356
7.00747
5.00264
5.58895
5.21255
3.63626
3.92824
3.57996
2.33708
2.27634
3.39372
3.39398
2.33626
2.54445
2.35891
1.64567
1.79737
1.67346
1.1996
1.35714
1.21809
0.684972
0.49611
0.552273
0.507857
0.34712
0.349349
0.31012
0.20702
0.19838
0.171473
0.109911
0.0952302
0.122145
0.117403
0.0815887
0.0853321
0.078144
0.0565006
0.0637507
0.0554503
0.0266493
0.0117552
0.00339288
0.158864
0.505108
0.949213
1.61721
2.80533
5.37707
12.2758
31.5973
33.2046
18.9187
24.4199
23.2926
14.001
18.2767
17.5599
11.1576
15.5179
14.4486
6.7487
5.07626
7.59972
7.40977
4.5492
5.81451
5.49409
3.29721
4.05813
3.75221
2.04509
2.0089
3.67342
3.68708
2.14823
2.65289
2.49167
1.49565
1.86216
1.75766
1.09349
1.43421
1.31383
0.609826
0.424026
0.55967
0.525273
0.310035
0.351396
0.318367
0.183676
0.196187
0.17326
0.0943016
0.0815338
0.126548
0.123241
0.0734566
0.0867834
0.0808194
0.0512872
0.0678297
0.0608223
0.02424
0.00975742
0.00273207
0.112224
0.357269
0.673395
1.15473
2.03431
4.07253
10.5794
36.6261
37.8982
16.4405
26.3388
25.4221
11.9305
19.5037
18.9489
9.51602
16.9072
16.0591
5.59812
4.0578
8.09506
7.97503
3.83664
6.13741
5.89017
2.77302
4.25446
4.01167
1.6529
1.63817
4.0525
4.07233
1.83027
2.80161
2.67506
1.26009
1.95596
1.87601
0.924082
1.53908
1.44484
0.502934
0.333362
0.57824
0.554154
0.257223
0.358382
0.333126
0.151402
0.196486
0.178758
0.0749003
0.0645291
0.134025
0.131966
0.061412
0.0894771
0.0849707
0.0431865
0.0733232
0.0679533
0.0204449
0.00735264
0.00199671
0.0663813
0.211501
0.399418
0.687869
1.22537
2.54877
7.74918
42.9667
43.7918
12.1322
28.8424
28.2359
8.64815
21.1795
20.8259
6.90609
18.7451
18.1935
3.94637
2.73906
8.82575
8.764
2.75717
6.60371
6.44635
1.98746
4.5488
4.39059
1.13294
1.13349
4.56304
4.58057
1.32756
3.0117
2.93008
0.904324
2.09362
2.04309
0.665214
1.68321
1.62253
0.35297
0.221039
0.612626
0.598641
0.182111
0.372878
0.356914
0.106518
0.200654
0.189341
0.0505683
0.0433297
0.145599
0.144542
0.0437949
0.0940674
0.091244
0.0309924
0.0807717
0.0773719
0.0146917
0.00458571
0.00121146
0.0218647
0.0696931
0.131736
0.227345
0.407384
0.872479
3.34577
50.9744
51.2641
5.27771
32.2155
31.9997
3.6936
23.5104
23.3877
2.95407
21.203
21.0088
1.62967
1.06563
9.87208
9.85456
1.16786
7.27598
7.22139
0.839385
4.98402
4.92816
0.451534
0.457029
5.24414
5.25147
0.567728
3.31243
3.28386
0.38237
2.29535
2.27791
0.282227
1.88202
1.8608
0.145254
0.0840328
0.668436
0.663941
0.0759527
0.398427
0.392914
0.0441189
0.210602
0.206666
0.0198652
0.0168653
0.162506
0.162202
0.0184062
0.101458
0.100487
0.0131077
0.0908995
0.0897239
0.0062214
0.0015676
0.000406478
)
;

boundaryField
{
    left
    {
        type            calculated;
        value           uniform 0;
    }
    right
    {
        type            calculated;
        value           uniform 0;
    }
    interface
    {
        type            calculated;
        value           nonuniform List<scalar> 
64
(
0.0218647
0.0696931
0.131736
0.227345
0.407384
0.872479
3.34577
50.9744
51.2641
5.27771
32.2155
31.9997
3.6936
23.5104
23.3877
2.95407
21.203
21.0088
1.62967
1.06563
9.87208
9.85456
1.16786
7.27598
7.22139
0.839385
4.98402
4.92816
0.451534
0.457029
5.24414
5.25147
0.567728
3.31243
3.28386
0.38237
2.29535
2.27791
0.282227
1.88202
1.8608
0.145254
0.0840328
0.668436
0.663941
0.0759527
0.398427
0.392914
0.0441189
0.210602
0.206666
0.0198652
0.0168653
0.162506
0.162202
0.0184062
0.101458
0.100487
0.0131077
0.0908995
0.0897239
0.0062214
0.0015676
0.000406478
)
;
    }
    bottom
    {
        type            calculated;
        value           nonuniform List<scalar> 
64
(
0.0221357
0.0661603
0.109421
0.151342
0.191264
0.228461
0.262172
0.29167
0.316332
0.335709
0.349571
0.357925
0.361001
0.359218
0.353135
0.343403
0.330713
0.31576
0.299207
0.281656
0.263638
0.245593
0.227875
0.210753
0.194419
0.178996
0.164554
0.151117
0.138671
0.127174
0.116567
0.106776
0.0977239
0.0893371
0.0815476
0.0742972
0.0675385
0.061234
0.0553556
0.0498825
0.0447995
0.0400948
0.0357585
0.0317808
0.0281505
0.0248544
0.0218769
0.0192
0.016804
0.0146676
0.0127686
0.0110845
0.00959265
0.00827083
0.00709751
0.00605216
0.00511552
0.00426977
0.00349863
0.00278736
0.00212267
0.00149261
0.000886341
0.00029393
)
;
    }
    defaultFaces
    {
        type            empty;
    }
}


// ************************************************************************* //
