/*--------------------------------*- C++ -*----------------------------------*\
| =========                 |                                                 |
| \\      /  F ield         | OpenFOAM: The Open Source CFD Toolbox           |
|  \\    /   O peration     | Version:  5.x                                   |
|   \\  /    A nd           | Web:      www.OpenFOAM.org                      |
|    \\/     M anipulation  |                                                 |
\*---------------------------------------------------------------------------*/
FoamFile
{
    version     2.0;
    format      ascii;
    class       volScalarField;
    location    "2.9";
    object      gradTx;
}
// * * * * * * * * * * * * * * * * * * * * * * * * * * * * * * * * * * * * * //

dimensions      [0 -1 0 1 0 0 0];

internalField   nonuniform List<scalar> 
2048
(
0.0201601
0.0602381
0.0995647
0.137577
0.173643
0.207067
0.237132
0.263158
0.284573
0.300978
0.312186
0.31824
0.319395
0.316084
0.308869
0.298392
0.285326
0.270338
0.254055
0.237042
0.219788
0.202696
0.186082
0.170185
0.155168
0.141134
0.128134
0.116179
0.105247
0.0952917
0.0862511
0.078052
0.0706175
0.0638716
0.0577429
0.0521668
0.0470868
0.0424541
0.0382277
0.034373
0.0308608
0.0276663
0.0247673
0.0221439
0.019777
0.0176478
0.0157377
0.014028
0.0125
0.0111352
0.00991521
0.00882212
0.00783842
0.00694721
0.00613245
0.00537916
0.00467372
0.00400413
0.00336024
0.00273381
0.00211858
0.00151002
0.000905055
0.000301578
0.0598003
0.178701
0.295428
0.408328
0.515524
0.614929
0.70437
0.781782
0.845423
0.894075
0.927175
0.944861
0.947917
0.937664
0.915805
0.884275
0.845099
0.800271
0.751666
0.700967
0.649625
0.598832
0.549523
0.50239
0.45791
0.416379
0.377939
0.342614
0.310333
0.280956
0.254289
0.230114
0.208198
0.188314
0.170249
0.153812
0.138834
0.125172
0.112706
0.101335
0.0909722
0.0815462
0.0729926
0.0652529
0.058271
0.0519919
0.0463604
0.0413214
0.0368195
0.0327997
0.0292079
0.0259908
0.0230966
0.0204752
0.0180788
0.0158631
0.0137874
0.0118163
0.00991948
0.00807279
0.00625775
0.00446127
0.00267468
0.000891502
0.0982392
0.293631
0.485622
0.671561
0.848355
1.0125
1.16029
1.28816
1.3931
1.47301
1.52695
1.55516
1.55904
1.54086
1.50353
1.45034
1.38468
1.3099
1.22912
1.14511
1.06027
0.97654
0.89544
0.818076
0.745198
0.677262
0.614476
0.556856
0.504268
0.45646
0.413105
0.373827
0.338235
0.305948
0.276613
0.249915
0.22558
0.203375
0.183106
0.16461
0.147752
0.132415
0.118498
0.105908
0.0945539
0.0843477
0.0751992
0.067018
0.0597134
0.0531956
0.0473757
0.0421666
0.0374831
0.033243
0.0293676
0.0257836
0.0224244
0.0192311
0.0161545
0.0131549
0.0102024
0.0072764
0.00436464
0.00145567
0.135754
0.405891
0.671689
0.929617
1.17539
1.40401
1.61005
1.78826
1.93416
2.04463
2.1183
2.15563
2.15872
2.13094
2.07656
2.0003
1.90702
1.80144
1.68794
1.57043
1.45221
1.33594
1.22367
1.11688
1.01653
0.923195
0.837115
0.758269
0.686432
0.621227
0.562171
0.50872
0.460312
0.416409
0.376515
0.340193
0.30707
0.27683
0.249211
0.223996
0.201004
0.180085
0.161103
0.143936
0.128462
0.114562
0.102113
0.0909889
0.0810662
0.0722206
0.0643301
0.0572745
0.0509366
0.0452025
0.0399631
0.0351165
0.0305699
0.026242
0.0220644
0.0179831
0.0139574
0.00995984
0.00597772
0.001995
0.172501
0.515991
0.854604
1.18409
1.499
1.79269
2.05778
2.28697
2.47399
2.61454
2.70681
2.75154
2.75173
2.71209
2.6384
2.53701
2.41432
2.27651
2.12928
1.97764
1.8258
1.67712
1.53412
1.39856
1.27158
1.15381
1.04547
0.946464
0.856458
0.774921
0.701194
0.634542
0.574221
0.519521
0.469804
0.424515
0.383186
0.345427
0.310916
0.279388
0.250628
0.224454
0.200706
0.179237
0.1599
0.142545
0.127017
0.113158
0.100809
0.0898143
0.0800191
0.0712717
0.0634234
0.056329
0.0498493
0.0438533
0.0382223
0.0328521
0.0276561
0.022566
0.0175315
0.0125193
0.00751877
0.00251097
0.208523
0.624106
1.0348
1.43588
1.82074
2.18094
2.50673
2.78827
3.01712
3.1875
3.29712
3.34719
3.3419
3.28755
3.19175
3.06261
2.90822
2.73631
2.55392
2.3672
2.18127
2.00014
1.82672
1.663
1.51019
1.36892
1.23934
1.12125
1.01418
0.917402
0.830067
0.751223
0.679917
0.61526
0.556469
0.502876
0.453925
0.409161
0.36821
0.330771
0.296598
0.265489
0.237269
0.211771
0.188826
0.168256
0.149874
0.13349
0.118911
0.10595
0.0944209
0.0841413
0.074932
0.0666169
0.059026
0.0519991
0.0453907
0.0390736
0.032943
0.0269173
0.0209373
0.0149648
0.00899416
0.00300562
0.243749
0.730083
1.21223
1.68524
2.14148
2.57043
2.95947
3.29557
3.56746
3.76758
3.89316
3.94612
3.93224
3.85982
3.73858
3.57862
3.38985
3.18159
2.96231
2.73935
2.51871
2.30499
2.10144
1.91014
1.7323
1.56847
1.41869
1.2826
1.15957
1.04869
0.94884
0.858837
0.777495
0.703732
0.636616
0.575373
0.519374
0.468106
0.421157
0.378193
0.33895
0.303215
0.270804
0.241542
0.215239
0.191693
0.170683
0.151985
0.135373
0.120629
0.107537
0.0958869
0.0854686
0.0760756
0.067506
0.0595695
0.0520928
0.0449256
0.0379445
0.0310551
0.02419
0.0173082
0.0104113
0.00348135
0.278004
0.833462
1.38631
1.93183
2.46142
2.96222
3.41804
3.81177
4.12847
4.35839
4.49829
4.55125
4.52511
4.43074
4.28028
4.08605
3.85989
3.61279
3.35468
3.09414
2.83809
2.59164
2.35825
2.14
1.93797
1.75254
1.58359
1.43062
1.29277
1.16892
1.05768
0.957582
0.867165
0.785143
0.710438
0.642184
0.57969
0.522403
0.469877
0.421757
0.377768
0.337696
0.301362
0.26859
0.239175
0.212887
0.189472
0.168669
0.150219
0.133873
0.119389
0.106528
0.0950532
0.0847262
0.0753121
0.0665885
0.0583535
0.0504326
0.0426841
0.0350009
0.0273077
0.019563
0.0117783
0.00394074
0.311012
0.933482
1.55603
2.1747
2.78012
3.35678
3.88407
4.33949
4.70338
4.96321
5.11547
5.16493
5.1223
5.00155
4.8177
4.58547
4.31869
4.03005
3.73102
3.43148
3.1393
2.86003
2.59718
2.35267
2.12734
1.92131
1.73426
1.5655
1.41399
1.27834
1.15687
1.04775
0.949226
0.85978
0.778201
0.703545
0.635084
0.572237
0.514534
0.461604
0.413169
0.369028
0.329021
0.29298
0.260692
0.231893
0.206292
0.18359
0.163493
0.145721
0.13001
0.116096
0.103716
0.0925987
0.0824746
0.0730865
0.0642025
0.0556236
0.047189
0.0387788
0.0303103
0.0217438
0.0131036
0.00438639
0.342401
1.02911
1.71991
2.41233
3.09655
3.75409
4.3588
4.88119
5.29528
5.58513
5.74728
5.78908
5.72502
5.57297
5.35123
5.07709
4.76632
4.43332
4.09115
3.75116
3.42217
3.11009
2.81829
2.54834
2.30066
2.07506
1.87098
1.68754
1.52352
1.37727
1.24676
1.12972
1.02405
0.927996
0.840221
0.759739
0.685806
0.617829
0.555324
0.497906
0.4453
0.397331
0.353879
0.314798
0.279866
0.248783
0.221214
0.196813
0.175252
0.156225
0.139445
0.124631
0.111494
0.0997295
0.0890292
0.0790981
0.0696732
0.0605299
0.0514881
0.0424147
0.0332189
0.0238657
0.0143957
0.0048207
0.371719
1.11904
1.87605
2.64261
3.40903
4.1536
4.84326
5.43928
5.90729
6.22712
6.39602
6.42513
6.33398
6.14523
5.88088
5.5608
5.20266
4.82241
4.43478
4.05283
3.68646
3.34177
3.0217
2.72725
2.45827
2.21416
1.99412
1.7971
1.62172
1.46609
1.32775
1.20393
1.09207
0.99019
0.896855
0.811073
0.732125
0.659423
0.592466
0.530857
0.474325
0.422739
0.376045
0.334139
0.296787
0.263645
0.234319
0.208415
0.185566
0.165444
0.147746
0.132178
0.118428
0.106159
0.0950157
0.0846613
0.0748009
0.0651846
0.0556121
0.0459359
0.0360554
0.0259438
0.0156624
0.00524578
0.398444
1.20178
2.02213
2.86288
3.71525
4.55422
5.33824
6.0163
6.5427
6.89213
7.06371
7.07409
6.94937
6.71809
6.40627
6.03629
5.62746
5.19703
4.76153
4.33609
3.93191
3.55503
3.2076
2.88976
2.60062
2.33908
2.10412
1.89458
1.70898
1.54521
1.40032
1.27087
1.15377
1.0468
0.94848
0.857872
0.774327
0.697272
0.626191
0.560666
0.500423
0.445394
0.395634
0.351106
0.311555
0.276575
0.245703
0.218485
0.194515
0.173447
0.154971
0.138785
0.124564
0.111931
0.100476
0.0898157
0.0796217
0.0696207
0.0595918
0.0493702
0.0388426
0.0279933
0.0169111
0.00566327
0.422011
1.27564
2.15552
3.06995
4.01225
4.95435
5.84437
6.61503
7.20508
7.58312
7.7521
7.73651
7.57086
7.29086
6.92674
6.50305
6.04041
5.5569
5.07092
4.60045
4.15824
3.74989
3.37627
3.03633
2.72824
2.45035
2.20149
1.98043
1.7857
1.61506
1.46497
1.33108
1.20966
1.09828
0.995483
0.900461
0.812693
0.731636
0.65674
0.587552
0.52378
0.465441
0.412761
0.365801
0.324274
0.287678
0.255467
0.227117
0.202181
0.180305
0.161177
0.1445
0.129945
0.11709
0.105456
0.0946015
0.0841717
0.073871
0.0634575
0.0527462
0.0416031
0.0300286
0.0181478
0.00607419
0.441831
1.33887
2.27333
3.26009
4.29635
5.35172
6.36217
7.23868
7.89849
8.30304
8.46263
8.41246
8.19756
7.86242
7.44135
6.96048
6.44126
5.90178
5.36245
4.8453
4.36515
3.92646
3.52808
3.16753
2.84178
2.54859
2.28676
2.05511
1.85227
1.67607
1.52224
1.38517
1.26029
1.1451
1.03825
0.939155
0.847503
0.762772
0.684353
0.611746
0.544594
0.483023
0.427532
0.378328
0.33505
0.297064
0.263721
0.234412
0.208653
0.186091
0.166423
0.14937
0.134614
0.121683
0.11
0.0990591
0.0884854
0.0779663
0.0672387
0.0560927
0.0443608
0.0320631
0.0193767
0.0064788
0.457326
1.38965
2.37247
3.42914
4.56311
5.74337
6.89198
7.89115
8.62764
9.05488
9.19639
9.10149
8.82801
8.43127
7.94897
7.40788
6.82988
6.2316
5.63555
5.06991
4.55234
4.08492
3.66352
3.28403
2.94198
2.63445
2.36054
2.11911
1.90908
1.72865
1.5727
1.43375
1.30622
1.18773
1.07717
0.974251
0.879018
0.79093
0.709272
0.633485
0.563067
0.498276
0.440042
0.388784
0.343996
0.304846
0.270577
0.240478
0.214021
0.190882
0.170769
0.153439
0.138611
0.125756
0.114156
0.103228
0.0925951
0.0819349
0.0709628
0.0594391
0.0471403
0.034109
0.0205999
0.00687639
0.467958
1.42629
2.44981
3.57252
4.80728
6.12539
7.434
8.57723
9.39806
9.84146
9.95401
9.80267
9.46009
8.99554
8.44835
7.8445
7.20635
6.54651
5.88957
5.27339
4.71953
4.22562
3.78315
3.38662
3.02966
2.70864
2.42344
2.1729
1.95643
1.77317
1.61696
1.47754
1.34803
1.22664
1.1126
1.00601
0.907481
0.816352
0.731728
0.653016
0.579413
0.511322
0.450366
0.397262
0.351227
0.311141
0.276155
0.245424
0.218375
0.194752
0.174272
0.156742
0.141972
0.129357
0.117975
0.107145
0.09653
0.0858018
0.0746543
0.0628161
0.0499681
0.0361768
0.0218165
0.00726494
0.473271
1.44724
2.50234
3.68541
5.02278
6.49277
7.98812
9.30306
10.2165
10.6652
10.7356
10.5146
10.091
9.55304
8.9382
8.26951
7.57109
6.84708
6.12372
5.45453
4.86649
4.34908
3.88766
3.4762
3.10577
2.77187
2.47612
2.21701
1.99455
1.80993
1.65567
1.51728
1.38628
1.26229
1.14489
1.03465
0.933115
0.839271
0.751937
0.670601
0.593865
0.522266
0.458549
0.40385
0.356862
0.316066
0.280575
0.249362
0.221804
0.197779
0.176989
0.159309
0.144723
0.132539
0.121511
0.110845
0.100316
0.0895879
0.0783336
0.0662562
0.0528743
0.0382742
0.0230207
0.00764068
0.472918
1.45125
2.52727
3.76287
5.20264
6.8391
8.5537
10.0766
11.091
11.5278
11.5407
11.2355
10.7169
10.1014
9.41732
8.68185
7.925
7.13442
6.33696
5.61175
4.9931
4.4561
3.97775
3.55379
3.17135
2.82482
2.51927
2.25197
2.02354
1.83909
1.68957
1.55385
1.42149
1.29508
1.17437
1.06034
0.95612
0.859913
0.770089
0.68652
0.606679
0.531183
0.464601
0.408632
0.361033
0.319733
0.283963
0.252412
0.22439
0.200037
0.178976
0.161156
0.146883
0.135356
0.124822
0.114357
0.103973
0.0933097
0.0820148
0.0697951
0.0558945
0.0404056
0.0242008
0.00799744
0.466694
1.43742
2.52227
3.80002
5.3391
7.15617
9.12925
10.9083
12.0317
12.4294
12.3681
11.9635
11.333
10.6383
9.88482
9.08008
8.26957
7.41049
6.52785
5.74287
5.09944
4.54788
4.0541
3.62051
3.22761
2.86807
2.55365
2.27839
2.04334
1.86067
1.71952
1.58822
1.45411
1.32543
1.20137
1.08315
0.976684
0.878512
0.786328
0.701079
0.618157
0.538107
0.468477
0.4117
0.363891
0.322246
0.286445
0.254695
0.226204
0.201607
0.180293
0.162284
0.148455
0.137874
0.127979
0.117702
0.107518
0.0969798
0.0857027
0.0734735
0.0590724
0.0425697
0.0253364
0.00832582
0.454552
1.40533
2.48561
3.79234
5.42365
7.43359
9.71175
11.812
13.0513
13.3675
13.2162
12.6971
11.9328
11.1615
10.3404
9.4619
8.60716
7.67842
6.69429
5.84489
5.18597
4.62612
4.11719
3.67762
3.27592
2.90199
2.58008
2.29703
2.05363
1.87447
1.74655
1.62157
1.48442
1.3537
1.22623
1.10303
0.994989
0.89532
0.800723
0.714628
0.628667
0.543014
0.470065
0.413157
0.36561
0.323688
0.288154
0.256344
0.2273
0.202568
0.181011
0.162676
0.149424
0.140172
0.131063
0.120886
0.110965
0.100608
0.0893879
0.0773395
0.0624647
0.044757
0.0263953
0.0086123
0.436622
1.35507
2.41631
3.73592
5.44727
7.65833
10.2957
12.8064
14.166
14.3354
14.0828
13.4358
12.5075
11.6693
10.7848
9.82347
8.94122
7.94306
6.83311
5.91368
5.25377
4.69328
4.16706
3.72652
3.31794
2.92659
2.5995
2.30887
2.05377
1.87993
1.77197
1.65532
1.51245
1.38026
1.24938
1.11977
1.01124
0.910637
0.813213
0.727574
0.638681
0.545795
0.469165
0.413142
0.36641
0.324107
0.28923
0.257507
0.2277
0.203012
0.181213
0.162285
0.14975
0.142352
0.134177
0.123892
0.114324
0.104204
0.0930393
0.0814526
0.066146
0.0469458
0.0273313
0.00883845
0.413207
1.28728
2.31434
3.6278
5.40077
7.81431
10.8717
13.9166
15.3965
15.3193
14.966
14.181
13.0446
12.1614
11.2204
10.1583
9.27674
8.21161
6.93957
5.9436
5.30489
4.7528
4.20293
3.7689
3.35576
2.94125
2.61304
2.31531
2.04269
1.87606
1.7975
1.69124
1.53779
1.40549
1.27135
1.13287
1.0257
0.924855
0.823538
0.740413
0.648816
0.546214
0.465461
0.411849
0.366568
0.323485
0.289828
0.258358
0.227378
0.20304
0.181012
0.16103
0.149354
0.144546
0.137449
0.126668
0.11761
0.107784
0.0965924
0.0858883
0.0702172
0.049096
0.0280802
0.00898049
0.38477
1.20311
2.18061
3.46631
5.27534
7.88207
11.424
15.1761
16.7701
16.2951
15.8653
14.9382
13.5263
12.6393
11.6523
10.4558
9.62083
8.49462
7.0065
5.92708
5.34285
4.80946
4.22261
3.80681
3.39213
2.94437
2.62216
2.3183
2.01872
1.86124
1.82543
1.73157
1.55936
1.42986
1.29292
1.14145
1.03873
0.938522
0.831122
0.753771
0.659908
0.54386
0.458493
0.409565
0.366446
0.321703
0.290128
0.259114
0.226235
0.202778
0.180565
0.158783
0.148109
0.146936
0.141046
0.129106
0.120848
0.111376
0.0999331
0.090746
0.0748146
0.0511399
0.0285585
0.00900959
0.351913
1.10423
2.01712
3.25137
5.06318
7.83875
11.9279
16.6301
18.3229
17.223
16.7828
15.7184
13.9262
13.108
12.0897
10.6985
9.98359
8.80714
7.02329
5.85405
5.37331
4.86985
4.22167
3.84296
3.43075
2.93287
2.62877
2.32069
1.97938
1.83302
1.85886
1.77922
1.57506
1.45404
1.31523
1.14403
1.05091
0.952432
0.83491
0.768462
0.673086
0.538068
0.447622
0.406715
0.366523
0.318481
0.290354
0.260056
0.224055
0.202386
0.180089
0.155353
0.145822
0.14977
0.145188
0.131012
0.124082
0.115035
0.102873
0.0961588
0.0801235
0.0529701
0.0286626
0.00889334
0.315345
0.992701
1.8268
2.98476
4.75841
7.65845
12.345
18.3387
20.1031
18.0406
17.7262
16.5414
14.2057
13.5773
12.5473
10.8591
10.3793
9.17024
6.97439
5.71145
5.40486
4.94294
4.1923
3.8811
3.47676
2.9014
2.63554
2.3265
1.92115
1.78784
1.902
1.83796
1.58129
1.47906
1.34001
1.13826
1.06314
0.967755
0.83314
0.785578
0.689887
0.527823
0.431993
0.403918
0.367431
0.313297
0.290803
0.261563
0.220459
0.202081
0.179895
0.150467
0.142213
0.153384
0.150166
0.132068
0.127397
0.11886
0.105115
0.102308
0.0863936
0.0544221
0.028271
0.0085985
0.275848
0.8709
1.61351
2.67029
4.35807
7.3133
12.6176
20.3814
22.1755
18.6535
18.7125
17.4397
14.308
14.065
13.0486
10.8958
10.8283
9.61291
6.83746
5.48265
5.45007
5.04077
4.12174
3.92659
3.53732
2.8414
2.6462
2.34138
1.83919
1.72071
1.9605
1.91277
1.57234
1.50656
1.36978
1.12051
1.0768
0.986211
0.82304
0.806607
0.712378
0.511629
0.410502
0.40206
0.37001
0.305285
0.291889
0.264154
0.214826
0.20216
0.180412
0.14375
0.136885
0.158234
0.156367
0.131781
0.13094
0.123017
0.106211
0.109445
0.0939586
0.0552503
0.0272511
0.00809532
0.234228
0.741383
1.38177
2.31378
3.8632
6.77558
12.6607
22.8628
24.6273
18.923
19.7734
18.4631
14.1504
14.5998
13.6285
10.7467
11.3592
10.1742
6.58095
5.14696
5.52664
5.17941
3.99029
3.98728
3.62236
2.73976
2.6661
2.37307
1.72691
1.62485
2.04187
2.0102
1.5395
1.53914
1.4082
1.08536
1.09402
1.01028
0.800415
0.833602
0.743309
0.487341
0.38176
0.402376
0.375371
0.293087
0.294198
0.268545
0.206201
0.203041
0.182227
0.134695
0.129297
0.164926
0.164309
0.129407
0.134952
0.127774
0.105497
0.117913
0.10326
0.0550978
0.0254695
0.00736297
0.191288
0.60676
1.1366
1.92295
3.27978
6.02103
12.353
25.9177
27.5757
18.6508
20.9627
19.6846
13.6147
15.2261
14.3375
10.3215
12.0123
10.9056
6.16111
4.67935
5.65865
5.38009
3.76871
4.0746
3.74555
2.57719
2.70287
2.43193
1.57555
1.49123
2.15597
2.13888
1.47008
1.58087
1.46046
1.02496
1.11797
1.04351
0.759136
0.869406
0.786288
0.451961
0.344074
0.406531
0.38497
0.274684
0.298573
0.275713
0.19317
0.205314
0.186124
0.122631
0.118726
0.174259
0.174677
0.123867
0.139816
0.133541
0.10202
0.128189
0.114874
0.0534556
0.0228095
0.00639547
0.147786
0.469568
0.883183
1.50703
2.61953
5.03402
11.5239
29.7194
31.1777
17.5598
22.3655
21.2069
12.5345
16.0099
15.2468
9.49308
12.8436
11.8741
5.51843
4.05025
5.8779
5.67055
3.41508
4.20505
3.92542
2.32607
2.76738
2.53152
1.37374
1.30808
2.3155
2.31012
1.34606
1.63788
1.53374
0.928139
1.15325
1.09081
0.69049
0.917948
0.845966
0.401391
0.295446
0.41672
0.400712
0.247168
0.306216
0.286983
0.17371
0.209805
0.193129
0.106691
0.104224
0.18726
0.188382
0.113635
0.146109
0.140918
0.0944409
0.140926
0.12954
0.0496129
0.0191946
0.00520693
0.104411
0.332168
0.626636
1.07626
1.90014
3.81466
9.93982
34.4864
35.6413
15.271
24.1101
23.1707
10.6803
17.046
16.4538
8.08539
13.9307
13.1644
4.57345
3.22584
6.22517
6.08679
2.87105
4.40212
4.18666
1.94797
2.87485
2.68909
1.10693
1.0604
2.53654
2.53871
1.14257
1.71916
1.63773
0.779395
1.20644
1.1589
0.58241
0.984617
0.928231
0.330142
0.233584
0.435747
0.425068
0.206484
0.318819
0.30412
0.145005
0.217669
0.204545
0.0857713
0.0845764
0.205232
0.206619
0.0966014
0.154673
0.150762
0.0809183
0.157011
0.148198
0.042596
0.0146193
0.00383434
0.0617633
0.196654
0.371715
0.641202
1.14478
2.38831
7.28612
40.4911
41.2406
11.2764
26.383
25.7628
7.74157
18.467
18.0887
5.86055
15.3791
14.882
3.22202
2.16876
6.75124
6.6751
2.05735
4.69856
4.56158
1.39072
3.04642
2.92611
0.756856
0.729418
2.83904
2.84375
0.826033
1.83758
1.78521
0.557695
1.28664
1.25671
0.418556
1.07673
1.04039
0.231006
0.155961
0.467103
0.461216
0.147124
0.338726
0.329439
0.103228
0.230494
0.221996
0.0584988
0.0582556
0.229794
0.230948
0.0699218
0.166694
0.16425
0.058974
0.177637
0.172017
0.0310947
0.00918662
0.00233625
0.0203459
0.0648036
0.122604
0.211933
0.380628
0.817756
3.14819
48.0681
48.3314
4.90864
29.4456
29.2252
3.30619
20.4535
20.3221
2.50362
17.3303
17.1556
1.33007
0.839314
7.5177
7.49446
0.868883
5.13911
5.09163
0.584988
3.3109
3.26861
0.301013
0.2921
3.24733
3.24981
0.352088
2.01098
1.99268
0.235091
1.40625
1.39594
0.177279
1.20408
1.19136
0.0946937
0.0599018
0.515013
0.51321
0.061773
0.369123
0.365916
0.0432955
0.250436
0.247448
0.0231906
0.0233753
0.262915
0.263384
0.0298354
0.183798
0.18296
0.025337
0.204385
0.202434
0.0133793
0.00315441
0.00078506
)
;

boundaryField
{
    left
    {
        type            calculated;
        value           uniform 0;
    }
    right
    {
        type            calculated;
        value           uniform 0;
    }
    interface
    {
        type            calculated;
        value           nonuniform List<scalar> 
64
(
0.0203459
0.0648036
0.122604
0.211933
0.380628
0.817756
3.14819
48.0681
48.3314
4.90864
29.4456
29.2252
3.30619
20.4535
20.3221
2.50362
17.3303
17.1556
1.33007
0.839314
7.5177
7.49446
0.868883
5.13911
5.09163
0.584988
3.3109
3.26861
0.301013
0.2921
3.24733
3.24981
0.352088
2.01098
1.99268
0.235091
1.40625
1.39594
0.177279
1.20408
1.19136
0.0946937
0.0599018
0.515013
0.51321
0.061773
0.369123
0.365916
0.0432955
0.250436
0.247448
0.0231906
0.0233753
0.262915
0.263384
0.0298354
0.183798
0.18296
0.025337
0.204385
0.202434
0.0133793
0.00315441
0.00078506
)
;
    }
    bottom
    {
        type            calculated;
        value           nonuniform List<scalar> 
64
(
0.0201601
0.0602381
0.0995647
0.137577
0.173643
0.207067
0.237132
0.263158
0.284573
0.300978
0.312186
0.31824
0.319395
0.316084
0.308869
0.298392
0.285326
0.270338
0.254055
0.237042
0.219788
0.202696
0.186082
0.170185
0.155168
0.141134
0.128134
0.116179
0.105247
0.0952917
0.0862511
0.078052
0.0706175
0.0638716
0.0577429
0.0521668
0.0470868
0.0424541
0.0382277
0.034373
0.0308608
0.0276663
0.0247673
0.0221439
0.019777
0.0176478
0.0157377
0.014028
0.0125
0.0111352
0.00991521
0.00882212
0.00783842
0.00694721
0.00613245
0.00537916
0.00467372
0.00400413
0.00336024
0.00273381
0.00211858
0.00151002
0.000905055
0.000301578
)
;
    }
    defaultFaces
    {
        type            empty;
    }
}


// ************************************************************************* //
