/*--------------------------------*- C++ -*----------------------------------*\
| =========                 |                                                 |
| \\      /  F ield         | OpenFOAM: The Open Source CFD Toolbox           |
|  \\    /   O peration     | Version:  5.x                                   |
|   \\  /    A nd           | Web:      www.OpenFOAM.org                      |
|    \\/     M anipulation  |                                                 |
\*---------------------------------------------------------------------------*/
FoamFile
{
    version     2.0;
    format      ascii;
    class       volScalarField;
    location    "2.9";
    object      gradTy;
}
// * * * * * * * * * * * * * * * * * * * * * * * * * * * * * * * * * * * * * //

dimensions      [0 -1 0 1 0 0 0];

internalField   nonuniform List<scalar> 
2048
(
-21.1844
-21.0965
-20.9217
-20.6622
-20.3215
-19.9045
-19.4177
-18.8693
-18.2688
-17.6269
-16.9548
-16.2642
-15.566
-14.8708
-14.1875
-13.5242
-12.8872
-12.2813
-11.7101
-11.1756
-10.6788
-10.2197
-9.79754
-9.41093
-9.05807
-8.73688
-8.44512
-8.18048
-7.9407
-7.72357
-7.52704
-7.34917
-7.18823
-7.04263
-6.91096
-6.79196
-6.6845
-6.58756
-6.50021
-6.42161
-6.351
-6.28766
-6.23093
-6.18018
-6.13484
-6.09437
-6.05828
-6.0261
-5.99743
-5.97188
-5.94912
-5.92887
-5.91085
-5.89485
-5.8807
-5.86824
-5.85734
-5.84794
-5.83995
-5.83334
-5.82807
-5.82413
-5.8215
-5.82019
-21.2554
-21.1667
-20.9901
-20.7278
-20.3831
-19.9607
-19.4674
-18.9112
-18.3021
-17.651
-16.9696
-16.27
-15.5635
-14.8607
-14.1711
-13.5027
-12.8617
-12.253
-11.68
-11.1447
-10.6479
-10.1894
-9.76836
-9.3832
-9.03201
-8.71262
-8.4227
-8.1599
-7.92188
-7.70643
-7.51143
-7.33497
-7.17529
-7.03083
-6.90018
-6.78209
-6.67545
-6.57924
-6.49257
-6.41459
-6.34456
-6.28175
-6.22552
-6.17523
-6.13032
-6.09025
-6.05452
-6.02268
-5.99431
-5.96903
-5.94651
-5.92646
-5.90861
-5.89277
-5.87873
-5.86636
-5.85554
-5.84619
-5.83824
-5.83165
-5.82639
-5.82246
-5.81984
-5.81853
-21.3903
-21.3
-21.1202
-20.8527
-20.5005
-20.0681
-19.5623
-18.9913
-18.3655
-17.6968
-16.9975
-16.2805
-15.5579
-14.8409
-14.1392
-13.461
-12.8125
-12.1986
-11.6224
-11.0857
-10.589
-10.1318
-9.7129
-9.33056
-8.98261
-8.66668
-8.38031
-8.12101
-7.88636
-7.67407
-7.482
-7.3082
-7.15092
-7.0086
-6.87986
-6.76348
-6.65837
-6.56356
-6.47815
-6.40134
-6.33239
-6.27059
-6.21529
-6.16589
-6.12179
-6.08248
-6.04744
-6.01623
-5.98842
-5.96365
-5.94158
-5.92192
-5.90441
-5.88884
-5.87502
-5.86283
-5.85214
-5.84289
-5.835
-5.82845
-5.82322
-5.8193
-5.81669
-5.81537
-21.5817
-21.4894
-21.3053
-21.0306
-20.668
-20.2216
-19.6978
-19.1055
-18.4558
-17.7614
-17.0363
-16.2942
-15.5486
-14.8112
-14.0923
-13.4002
-12.7413
-12.1202
-11.5398
-11.0013
-10.5049
-10.0498
-9.63423
-9.25605
-8.91283
-8.60191
-8.32063
-8.06633
-7.83649
-7.6287
-7.44077
-7.27072
-7.1168
-6.97748
-6.85141
-6.73742
-6.63445
-6.54157
-6.45793
-6.38275
-6.31531
-6.25492
-6.20094
-6.15277
-6.10983
-6.07158
-6.03752
-6.00719
-5.98019
-5.95613
-5.93469
-5.91557
-5.89853
-5.88334
-5.86984
-5.85789
-5.84739
-5.83826
-5.83046
-5.82397
-5.81876
-5.81486
-5.81225
-5.81094
-21.823
-21.7284
-21.5393
-21.2563
-20.881
-20.4171
-19.8707
-19.251
-18.5702
-17.8426
-17.0838
-16.3095
-15.5343
-14.7709
-14.0303
-13.321
-12.6492
-12.0193
-11.4339
-10.8937
-10.3982
-9.94607
-9.53499
-9.16236
-8.82529
-8.52085
-8.2461
-7.9982
-7.77445
-7.57234
-7.38961
-7.22425
-7.07452
-6.93891
-6.81614
-6.70508
-6.60475
-6.51426
-6.4328
-6.35964
-6.29406
-6.23543
-6.1831
-6.13647
-6.09496
-6.05804
-6.0252
-5.99599
-5.96998
-5.94682
-5.92616
-5.90773
-5.89126
-5.87655
-5.86343
-5.85178
-5.8415
-5.83252
-5.82482
-5.81838
-5.81321
-5.80931
-5.8067
-5.80539
-22.1085
-22.0116
-21.8174
-21.5253
-21.1359
-20.6516
-20.0782
-19.4253
-18.7064
-17.9381
-17.1382
-16.3246
-15.5135
-14.7192
-13.9528
-13.2232
-12.5366
-11.8969
-11.3062
-10.7646
-10.2709
-9.82282
-9.41756
-9.05186
-8.72238
-8.42581
-8.15895
-7.91871
-7.70223
-7.50687
-7.33027
-7.1704
-7.02552
-6.89421
-6.77523
-6.66755
-6.57025
-6.48251
-6.40357
-6.33272
-6.26932
-6.21272
-6.16231
-6.11748
-6.07766
-6.0423
-6.0109
-5.98298
-5.95815
-5.93603
-5.91629
-5.89865
-5.88285
-5.8687
-5.85602
-5.8447
-5.83467
-5.82586
-5.81826
-5.81187
-5.80672
-5.80282
-5.80021
-5.79889
-22.4326
-22.3338
-22.1349
-21.834
-21.4297
-20.9229
-20.3186
-19.6267
-18.8628
-18.0459
-17.1973
-16.3374
-15.4848
-14.6547
-13.8591
-13.1068
-12.4039
-11.7538
-11.1579
-10.6156
-10.1247
-9.68206
-9.28405
-8.92673
-8.60625
-8.31891
-8.06119
-7.8298
-7.62166
-7.43399
-7.26433
-7.11061
-6.97114
-6.84457
-6.72977
-6.62581
-6.53184
-6.44712
-6.37094
-6.30267
-6.24167
-6.18735
-6.13909
-6.0963
-6.05838
-6.02477
-5.99498
-5.96852
-5.94501
-5.92405
-5.90534
-5.88859
-5.87354
-5.86
-5.84781
-5.83686
-5.82708
-5.81844
-5.81094
-5.8046
-5.79945
-5.79554
-5.79291
-5.79158
-22.7902
-22.6902
-22.4879
-22.1791
-21.7601
-21.2294
-20.5906
-19.8541
-19.0377
-18.1643
-17.2592
-16.3462
-15.4463
-14.5762
-13.7484
-12.9716
-12.2513
-11.5906
-10.99
-10.448
-9.96126
-9.52564
-9.13643
-8.78898
-8.47888
-8.20205
-7.95467
-7.73321
-7.5344
-7.35526
-7.19322
-7.0462
-6.91256
-6.79107
-6.68072
-6.58071
-6.49029
-6.40879
-6.33558
-6.27006
-6.21166
-6.1598
-6.11389
-6.07332
-6.03748
-6.00581
-5.97777
-5.95291
-5.93083
-5.91115
-5.89356
-5.87777
-5.86354
-5.85066
-5.83899
-5.82842
-5.81891
-5.81043
-5.80301
-5.79669
-5.79153
-5.78759
-5.78493
-5.78359
-23.1764
-23.0764
-22.8723
-22.5577
-22.1253
-21.5701
-20.8937
-20.1068
-19.2301
-18.2916
-17.3217
-16.3487
-15.3963
-14.4824
-13.6199
-12.8171
-12.0789
-11.4078
-10.8034
-10.263
-9.78219
-9.3553
-8.97656
-8.64048
-8.34211
-8.077
-7.84107
-7.63055
-7.44195
-7.27211
-7.11829
-6.97839
-6.85087
-6.73466
-6.62894
-6.53302
-6.4463
-6.36816
-6.29804
-6.23541
-6.17974
-6.1305
-6.0871
-6.04892
-6.01533
-5.98572
-5.95958
-5.93642
-5.91587
-5.89755
-5.88115
-5.8664
-5.85303
-5.84086
-5.82973
-5.81955
-5.81029
-5.80196
-5.7946
-5.78827
-5.78307
-5.77908
-5.77638
-5.77502
-23.5862
-23.4876
-23.2847
-22.9674
-22.524
-21.9448
-21.2281
-20.3845
-19.4389
-18.4259
-17.3826
-16.3427
-15.3328
-14.3719
-13.4728
-12.643
-11.8869
-11.2058
-10.5988
-10.0619
-9.58895
-9.17273
-8.80618
-8.48298
-8.19762
-7.94536
-7.72189
-7.52325
-7.3457
-7.18583
-7.04073
-6.90825
-6.78702
-6.67619
-6.57516
-6.48342
-6.40046
-6.32576
-6.25882
-6.19915
-6.14631
-6.09981
-6.05907
-6.02343
-5.99222
-5.96481
-5.94066
-5.9193
-5.90034
-5.88345
-5.86831
-5.85465
-5.8422
-5.83075
-5.82017
-5.81038
-5.80136
-5.79315
-5.78582
-5.77946
-5.77419
-5.77012
-5.76736
-5.76596
-24.0146
-23.9194
-23.7212
-23.4058
-22.9553
-22.3538
-21.5945
-20.6877
-19.6634
-18.5654
-17.4397
-16.3258
-15.2538
-14.2434
-13.3063
-12.4493
-11.6753
-10.9852
-10.3771
-9.84576
-9.383
-8.97956
-8.62701
-8.31814
-8.04698
-7.80859
-7.59851
-7.41259
-7.24686
-7.0976
-6.96163
-6.83676
-6.72186
-6.61639
-6.52003
-6.43247
-6.35331
-6.28208
-6.21834
-6.16169
-6.11173
-6.06805
-6.0301
-5.99714
-5.96844
-5.94333
-5.92125
-5.90175
-5.88445
-5.86904
-5.85521
-5.84267
-5.83117
-5.82048
-5.81045
-5.80103
-5.79223
-5.78412
-5.77678
-5.77034
-5.76496
-5.76078
-5.75794
-5.75651
-24.4564
-24.3671
-24.1783
-23.8706
-23.4188
-22.7981
-21.9947
-21.0173
-19.9028
-18.7081
-17.4902
-16.2956
-15.1575
-14.0956
-13.12
-12.2358
-11.4446
-10.7464
-10.139
-9.61573
-9.16581
-8.77745
-8.44071
-8.14755
-7.89165
-7.668
-7.47213
-7.29971
-7.14655
-7.00851
-6.88199
-6.76478
-6.65611
-6.55589
-6.46409
-6.38066
-6.30529
-6.23753
-6.177
-6.12335
-6.07629
-6.0355
-6.00045
-5.9703
-5.94423
-5.9215
-5.90156
-5.88396
-5.86836
-5.85446
-5.84197
-5.83062
-5.8201
-5.81016
-5.80068
-5.79162
-5.78302
-5.77496
-5.76758
-5.76101
-5.75547
-5.75115
-5.7482
-5.74673
-24.9066
-24.8261
-24.6521
-24.3595
-23.9141
-23.2793
-22.431
-21.3746
-20.1566
-18.8518
-17.5314
-16.2492
-15.0418
-13.9276
-12.9136
-12.0028
-11.1952
-10.4898
-9.88511
-9.37296
-8.93891
-8.56803
-8.24888
-7.97271
-7.73293
-7.52478
-7.34383
-7.18561
-7.04574
-6.91953
-6.80274
-6.69309
-6.59042
-6.4952
-6.4078
-6.32842
-6.25679
-6.19247
-6.13511
-6.08442
-6.04023
-6.00238
-5.97035
-5.94316
-5.91981
-5.89954
-5.88178
-5.8661
-5.85221
-5.83985
-5.82874
-5.81859
-5.80909
-5.79993
-5.79097
-5.78224
-5.7738
-5.76576
-5.75828
-5.75154
-5.74578
-5.74128
-5.73821
-5.7367
-25.3599
-25.2914
-25.1387
-24.8703
-24.4411
-23.7997
-22.9068
-21.7618
-20.4237
-18.9936
-17.56
-16.1837
-14.9047
-13.7385
-12.6869
-11.7508
-10.9276
-10.2159
-9.61608
-9.11859
-8.70392
-8.35299
-8.05313
-7.79506
-7.57204
-7.37996
-7.21454
-7.07113
-6.9453
-6.83159
-6.72474
-6.62237
-6.52531
-6.43477
-6.35151
-6.27607
-6.20816
-6.14722
-6.09297
-6.04517
-6.00375
-5.96887
-5.93999
-5.91591
-5.89538
-5.87763
-5.86206
-5.8483
-5.83613
-5.82532
-5.8156
-5.80671
-5.79825
-5.78988
-5.78142
-5.77298
-5.76466
-5.7566
-5.74898
-5.74201
-5.73597
-5.73124
-5.72803
-5.72647
-25.8112
-25.7583
-25.634
-25.4003
-24.9998
-24.3622
-23.4268
-22.1818
-20.7029
-19.1301
-17.5725
-16.0959
-14.7446
-13.5281
-12.4403
-11.4805
-10.6429
-9.92499
-9.33229
-8.85381
-8.46259
-8.13399
-7.85498
-7.61596
-7.41003
-7.23443
-7.08505
-6.95695
-6.84595
-6.74555
-6.64883
-6.55321
-6.46119
-6.37494
-6.2955
-6.22389
-6.15969
-6.10204
-6.05084
-6.00581
-5.96701
-5.93509
-5.90955
-5.88875
-5.87113
-5.85593
-5.84257
-5.8307
-5.82023
-5.81097
-5.80265
-5.79504
-5.78769
-5.78011
-5.77211
-5.7639
-5.75567
-5.74755
-5.73974
-5.73247
-5.72607
-5.72106
-5.7177
-5.7161
-26.2553
-26.2217
-26.1336
-25.9466
-25.59
-24.9704
-23.9969
-22.6385
-20.9921
-19.2572
-17.5655
-15.9824
-14.5596
-13.2965
-12.1741
-11.193
-10.3422
-9.61716
-9.03383
-8.57988
-8.21688
-7.91271
-7.6559
-7.43672
-7.2478
-7.08892
-6.95606
-6.84359
-6.74829
-6.66226
-6.57582
-6.48607
-6.39836
-6.31596
-6.23995
-6.17209
-6.11163
-6.05717
-6.00894
-5.96654
-5.93009
-5.90113
-5.87917
-5.86187
-5.84722
-5.83458
-5.82342
-5.81337
-5.80458
-5.79686
-5.78995
-5.78367
-5.7775
-5.7707
-5.76309
-5.75508
-5.7469
-5.73866
-5.73063
-5.72299
-5.71613
-5.71079
-5.70727
-5.70564
-26.6874
-26.6767
-26.6328
-26.5058
-26.2112
-25.6282
-24.6249
-23.1373
-21.2878
-19.3694
-17.5353
-15.8394
-14.3481
-13.0444
-11.889
-10.8899
-10.0273
-9.29213
-8.72041
-8.29816
-7.96906
-7.69075
-7.45726
-7.25866
-7.08606
-6.94404
-6.82818
-6.73137
-6.65279
-6.58256
-6.50657
-6.42129
-6.33701
-6.25807
-6.18495
-6.12083
-6.06425
-6.01279
-5.96748
-5.92757
-5.89305
-5.86701
-5.84898
-5.83546
-5.82378
-5.81372
-5.80474
-5.79641
-5.78924
-5.78307
-5.77752
-5.77265
-5.76774
-5.76175
-5.75442
-5.74654
-5.73839
-5.72999
-5.72169
-5.71362
-5.70617
-5.70043
-5.69676
-5.69513
-27.1028
-27.1184
-27.1266
-27.0736
-26.8621
-26.3402
-25.3207
-23.6856
-21.5844
-19.4603
-17.4792
-15.6623
-14.1089
-12.7741
-11.5854
-10.573
-9.70092
-8.949
-8.39114
-8.01024
-7.72189
-7.46952
-7.26031
-7.08312
-6.92524
-6.80023
-6.70201
-6.62035
-6.5597
-6.50735
-6.44206
-6.35905
-6.27719
-6.20144
-6.13046
-6.07022
-6.01782
-5.96901
-5.92666
-5.88912
-5.85585
-5.83269
-5.81911
-5.80972
-5.80094
-5.79344
-5.78663
-5.77984
-5.77426
-5.76964
-5.7654
-5.76199
-5.75851
-5.75334
-5.74612
-5.73831
-5.73018
-5.72156
-5.71299
-5.70442
-5.6962
-5.69
-5.68621
-5.68462
-27.4973
-27.5423
-27.61
-27.6454
-27.5407
-27.1107
-26.097
-24.2937
-21.8723
-19.5215
-17.3958
-15.4454
-13.8407
-12.489
-11.2632
-10.2446
-9.36695
-8.58583
-8.0443
-7.71808
-7.47886
-7.25006
-7.06608
-6.91165
-6.76544
-6.65777
-6.57826
-6.51031
-6.46909
-6.43765
-6.38345
-6.29923
-6.21879
-6.14631
-6.07633
-6.0203
-5.97266
-5.92588
-5.88665
-5.85148
-5.81834
-5.79805
-5.78967
-5.78488
-5.77875
-5.77382
-5.76919
-5.76366
-5.75966
-5.75663
-5.75354
-5.75171
-5.74988
-5.74556
-5.73818
-5.73038
-5.72231
-5.71338
-5.70456
-5.69545
-5.68621
-5.67946
-5.67562
-5.67413
-27.8672
-27.944
-28.0777
-28.2154
-28.2435
-27.9437
-26.9693
-24.9769
-22.1364
-19.5432
-17.2871
-15.1812
-13.5424
-12.1954
-10.921
-9.90707
-9.03141
-8.19902
-7.67708
-7.42419
-7.24454
-7.03272
-6.87536
-6.74617
-6.60619
-6.51679
-6.45789
-6.4006
-6.38074
-6.37463
-6.33223
-6.24132
-6.16153
-6.09308
-6.02218
-5.97107
-5.92922
-5.8833
-5.8476
-5.81503
-5.78025
-5.76285
-5.76082
-5.76124
-5.75723
-5.75489
-5.75256
-5.74784
-5.74544
-5.74408
-5.74189
-5.74177
-5.74194
-5.73851
-5.73055
-5.72275
-5.71482
-5.70544
-5.69645
-5.68678
-5.67614
-5.66878
-5.66501
-5.66371
-28.2094
-28.3197
-28.5244
-28.7772
-28.9651
-28.8422
-27.9566
-25.7576
-22.3522
-19.5133
-17.1602
-14.8582
-13.2131
-11.9034
-10.5544
-9.56332
-8.70368
-7.78236
-7.28533
-7.13191
-7.02509
-6.8166
-6.68863
-6.5894
-6.44622
-6.37728
-6.3424
-6.28997
-6.2941
-6.31971
-6.29041
-6.18419
-6.10498
-6.04241
-5.96731
-5.92249
-5.88817
-5.84093
-5.80969
-5.78037
-5.74111
-5.72678
-5.73274
-5.73919
-5.7363
-5.73668
-5.7369
-5.73225
-5.73156
-5.73209
-5.73033
-5.73211
-5.73476
-5.73234
-5.72313
-5.71535
-5.70776
-5.69768
-5.68868
-5.67852
-5.66592
-5.65788
-5.65438
-5.65341
-28.5215
-28.666
-28.9451
-29.3235
-29.6983
-29.8066
-29.0815
-26.6699
-22.4814
-19.418
-17.0313
-14.4592
-12.8518
-11.629
-10.1547
-9.21633
-8.39833
-7.32556
-6.86334
-6.84577
-6.82894
-6.59882
-6.506
-6.44533
-6.28296
-6.23907
-6.23421
-6.17631
-6.20819
-6.27461
-6.26085
-6.12578
-6.0485
-5.99555
-5.91059
-5.87447
-5.85056
-5.7981
-5.77304
-5.74846
-5.70014
-5.68936
-5.7057
-5.71925
-5.71571
-5.71916
-5.72246
-5.71669
-5.718
-5.72081
-5.71867
-5.72263
-5.72847
-5.72725
-5.71571
-5.70812
-5.70123
-5.68998
-5.68128
-5.67082
-5.65541
-5.64667
-5.64375
-5.64328
-28.8017
-28.9802
-29.335
-29.8466
-30.4333
-30.8342
-30.3695
-27.7651
-22.4645
-19.2418
-16.9306
-13.9566
-12.4578
-11.3977
-9.70521
-8.86917
-8.1378
-6.81203
-6.40376
-6.57179
-6.6679
-6.37329
-6.32719
-6.32013
-6.1119
-6.10187
-6.13722
-6.05628
-6.12161
-6.24144
-6.24768
-6.06261
-5.99132
-5.95459
-5.85011
-5.82689
-5.81802
-5.7536
-5.7378
-5.72078
-5.65613
-5.65005
-5.68005
-5.70219
-5.69502
-5.7023
-5.70967
-5.70078
-5.70472
-5.71051
-5.70663
-5.7132
-5.72322
-5.72354
-5.70799
-5.70099
-5.69539
-5.68217
-5.6743
-5.66393
-5.64439
-5.63507
-5.63314
-5.6334
-29.049
-29.2604
-29.6898
-30.3384
-31.158
-31.917
-31.8475
-29.1215
-22.211
-18.9685
-16.9093
-13.3068
-12.0303
-11.2484
-9.17726
-8.52496
-7.95627
-6.21566
-5.89788
-6.3178
-6.55846
-6.12914
-6.15162
-6.22326
-5.92554
-5.96534
-6.05761
-5.92463
-6.03245
-6.22266
-6.25689
-5.9891
-5.93256
-5.92303
-5.78285
-5.77962
-5.79312
-5.70537
-5.70411
-5.69961
-5.6072
-5.60818
-5.65628
-5.6891
-5.67345
-5.68605
-5.69916
-5.68398
-5.69167
-5.70164
-5.69378
-5.70366
-5.71917
-5.72168
-5.69951
-5.69388
-5.69055
-5.67396
-5.66778
-5.65824
-5.63256
-5.62296
-5.62261
-5.62387
-29.2632
-29.5054
-30.0061
-30.7908
-31.8577
-33.0403
-33.5407
-30.8571
-21.585
-18.5825
-17.0496
-12.4417
-11.5692
-11.2401
-8.52387
-8.18685
-7.90493
-5.4962
-5.33638
-6.0935
-6.52383
-5.84837
-5.97845
-6.16913
-5.71193
-5.82914
-6.0049
-5.77344
-5.93846
-6.221
-6.29724
-5.89664
-5.87132
-5.90638
-5.7041
-5.73254
-5.77979
-5.65009
-5.67213
-5.68844
-5.55052
-5.56306
-5.63504
-5.68155
-5.64977
-5.67033
-5.69195
-5.6654
-5.67883
-5.6949
-5.67953
-5.69383
-5.71656
-5.72238
-5.68955
-5.68673
-5.6872
-5.6649
-5.66179
-5.65437
-5.61946
-5.61027
-5.61225
-5.6148
-29.4447
-29.7147
-30.2812
-31.1963
-32.5161
-34.1809
-35.467
-33.148
-20.3866
-18.0718
-17.4771
-11.2567
-11.0758
-11.4601
-7.67136
-7.85807
-8.05907
-4.59271
-4.71103
-5.91022
-6.59654
-5.50283
-5.80695
-6.17925
-5.45264
-5.69317
-5.99335
-5.59084
-5.83721
-6.23919
-6.38144
-5.77227
-5.80687
-5.91307
-5.60665
-5.68563
-5.78389
-5.58265
-5.64201
-5.69243
-5.48183
-5.51412
-5.61709
-5.68174
-5.62205
-5.65513
-5.68959
-5.64374
-5.66623
-5.69139
-5.66297
-5.68354
-5.71561
-5.72666
-5.67708
-5.67949
-5.68609
-5.65433
-5.65639
-5.6532
-5.60439
-5.59697
-5.60222
-5.60634
-29.5944
-29.8886
-30.5136
-31.5485
-33.1157
-35.306
-37.6274
-36.2536
-18.3262
-17.4316
-18.3776
-9.59467
-10.5539
-12.0355
-6.5082
-7.54228
-8.52727
-3.4147
-4.01763
-5.77991
-6.82195
-5.05012
-5.63689
-6.28506
-5.12004
-5.55783
-6.04375
-5.35938
-5.72666
-6.27944
-6.52778
-5.597
-5.73888
-5.95553
-5.4797
-5.63903
-5.81398
-5.49533
-5.61397
-5.71906
-5.39485
-5.46104
-5.60325
-5.69279
-5.5874
-5.64043
-5.69432
-5.61702
-5.6539
-5.69269
-5.64283
-5.67266
-5.71652
-5.73605
-5.66058
-5.67217
-5.68835
-5.64123
-5.65166
-5.65603
-5.58633
-5.5831
-5.59269
-5.59862
-29.7138
-30.0283
-30.7027
-31.8425
-33.6392
-36.3724
-39.9927
-40.5495
-14.992
-16.6705
-20.017
-7.22512
-10.0124
-13.1468
-4.87067
-7.24413
-9.46312
-1.83038
-3.26073
-5.71322
-7.26298
-4.42847
-5.46927
-6.53142
-4.67368
-5.42448
-6.18564
-5.05384
-5.60598
-6.34252
-6.76221
-5.34354
-5.66782
-6.05156
-5.30746
-5.5932
-5.88229
-5.37685
-5.58824
-5.77891
-5.28041
-5.40415
-5.59427
-5.71899
-5.54161
-5.62632
-5.70938
-5.58234
-5.64198
-5.70104
-5.6172
-5.66113
-5.71937
-5.75265
-5.63784
-5.66482
-5.69559
-5.62412
-5.64765
-5.66467
-5.56374
-5.56883
-5.58387
-5.59173
-29.8048
-30.1352
-30.8492
-32.0752
-34.071
-37.3279
-42.4831
-46.5709
-9.80844
-15.8186
-22.7662
-3.81804
-9.46853
-15.045
-2.52488
-6.97024
-11.0796
0.348629
-2.4608
-5.71602
-8.00607
-3.55029
-5.30731
-6.98089
-4.05585
-5.29612
-6.45998
-4.63832
-5.47691
-6.42633
-7.12114
-4.97354
-5.59544
-6.22601
-5.06736
-5.54912
-6.00584
-5.21109
-5.56519
-5.88665
-5.12542
-5.34482
-5.59054
-5.76622
-5.47866
-5.61297
-5.73919
-5.53554
-5.63064
-5.71952
-5.58336
-5.64908
-5.72398
-5.77941
-5.60575
-5.65753
-5.71003
-5.60083
-5.64432
-5.6816
-5.5344
-5.5545
-5.57598
-5.58574
-29.8694
-30.2115
-30.9548
-32.2458
-34.3991
-38.115
-44.9412
-55.0666
-1.98525
-14.9389
-27.1298
1.08825
-8.95252
-18.0728
0.854921
-6.73069
-13.6666
3.38643
-1.66433
-5.78402
-9.16887
-2.2943
-5.15781
-7.71883
-3.18596
-5.17832
-6.92235
-4.06269
-5.34575
-6.52384
-7.65487
-4.43414
-5.52549
-6.51268
-4.72782
-5.50856
-6.2078
-4.97558
-5.54528
-6.06219
-4.91145
-5.28617
-5.59166
-5.84239
-5.39016
-5.60068
-5.78976
-5.47072
-5.62016
-5.75224
-5.53742
-5.63688
-5.72967
-5.82032
-5.5599
-5.65046
-5.73464
-5.56828
-5.64151
-5.7101
-5.49508
-5.54068
-5.56914
-5.58057
-29.9101
-30.2596
-31.0218
-32.3556
-34.6165
-38.6769
-47.0957
-67.065
9.54393
-14.1416
-33.7794
8.12501
-8.51443
-22.6873
5.71196
-6.54115
-17.6109
7.64634
-0.957525
-5.89494
-10.9097
-0.496247
-5.03297
-8.85919
-1.954
-5.08051
-7.64651
-3.25811
-5.22617
-6.62019
-8.43184
-3.6538
-5.46459
-6.9565
-4.24565
-5.47448
-6.51909
-4.63968
-5.52923
-6.33204
-4.61309
-5.23393
-5.59591
-5.95808
-5.26465
-5.58998
-5.869
-5.37977
-5.61092
-5.80452
-5.47397
-5.62532
-5.73502
-5.88068
-5.49429
-5.64381
-5.77325
-5.52219
-5.63884
-5.75448
-5.44121
-5.52826
-5.56332
-5.57601
-29.9292
-30.2823
-31.0537
-32.4083
-34.7229
-38.9692
-48.5158
-83.9537
26.1931
-13.6029
-43.5892
18.1365
-8.23258
-29.4875
12.6359
-6.42603
-23.42
13.6185
-0.48456
-5.99813
-13.4398
2.0614
-4.95312
-10.5515
-0.213477
-5.01818
-8.72903
-2.13231
-5.14349
-6.68948
-9.54434
-2.5381
-5.42403
-7.61658
-3.56366
-5.45211
-6.98073
-4.1632
-5.51871
-6.73149
-4.19656
-5.19828
-5.60003
-6.12789
-5.08749
-5.5823
-5.98785
-5.25237
-5.60416
-5.88389
-5.38624
-5.61654
-5.73814
-5.96822
-5.40146
-5.63854
-5.83149
-5.45748
-5.63631
-5.82095
-5.36721
-5.51927
-5.55894
-5.57237
)
;

boundaryField
{
    left
    {
        type            calculated;
        value           nonuniform List<scalar> 
32
(
-21.1844
-21.2554
-21.3903
-21.5817
-21.823
-22.1085
-22.4326
-22.7902
-23.1764
-23.5862
-24.0146
-24.4564
-24.9066
-25.3599
-25.8112
-26.2553
-26.6874
-27.1028
-27.4973
-27.8672
-28.2094
-28.5215
-28.8017
-29.049
-29.2632
-29.4447
-29.5944
-29.7138
-29.8048
-29.8694
-29.9101
-29.9292
)
;
    }
    right
    {
        type            calculated;
        value           nonuniform List<scalar> 
32
(
-5.82019
-5.81853
-5.81537
-5.81094
-5.80539
-5.79889
-5.79158
-5.78359
-5.77502
-5.76596
-5.75651
-5.74673
-5.7367
-5.72647
-5.7161
-5.70564
-5.69513
-5.68462
-5.67413
-5.66371
-5.65341
-5.64328
-5.6334
-5.62387
-5.6148
-5.60634
-5.59862
-5.59173
-5.58574
-5.58057
-5.57601
-5.57237
)
;
    }
    interface
    {
        type            calculated;
        value           nonuniform List<scalar> 
64
(
-29.9337
-30.2877
-31.0612
-32.4209
-34.7486
-39.0435
-48.9769
-93.8192
35.9986
-13.4249
-49.4074
24.0062
-8.1426
-33.5186
16.6984
-6.39079
-26.8625
17.1027
-0.328839
-6.03933
-14.9322
3.56098
-4.9276
-11.5568
0.804746
-4.99828
-9.37353
-1.47596
-5.11543
-6.71332
-10.1977
-1.88306
-5.41061
-8.00908
-3.16462
-5.44472
-7.25499
-3.88416
-5.51515
-6.96867
-3.95399
-5.18624
-5.60157
-6.22847
-4.98398
-5.5795
-6.05877
-5.17816
-5.60165
-5.93147
-5.33541
-5.61324
-5.7389
-6.01995
-5.34726
-5.63646
-5.86637
-5.41981
-5.63515
-5.86065
-5.32444
-5.51601
-5.55723
-5.57089
)
;
    }
    bottom
    {
        type            calculated;
        value           nonuniform List<scalar> 
64
(
-21.1659
-21.0782
-20.9039
-20.6452
-20.3055
-19.8899
-19.4048
-18.8584
-18.2601
-17.6206
-16.9509
-16.2626
-15.5667
-14.8733
-14.1918
-13.5298
-12.8938
-12.2887
-11.7179
-11.1836
-10.6868
-10.2276
-9.80514
-9.41816
-9.06487
-8.74322
-8.45097
-8.18586
-7.94562
-7.72806
-7.53112
-7.35289
-7.19161
-7.04572
-6.91379
-6.79455
-6.68687
-6.58973
-6.50221
-6.42345
-6.35269
-6.28921
-6.23235
-6.18148
-6.13603
-6.09545
-6.05926
-6.027
-5.99824
-5.97263
-5.94981
-5.9295
-5.91143
-5.8954
-5.88121
-5.86873
-5.85782
-5.8484
-5.8404
-5.83378
-5.82851
-5.82456
-5.82194
-5.82063
)
;
    }
    defaultFaces
    {
        type            empty;
    }
}


// ************************************************************************* //
