/*--------------------------------*- C++ -*----------------------------------*\
| =========                 |                                                 |
| \\      /  F ield         | OpenFOAM: The Open Source CFD Toolbox           |
|  \\    /   O peration     | Version:  5.x                                   |
|   \\  /    A nd           | Web:      www.OpenFOAM.org                      |
|    \\/     M anipulation  |                                                 |
\*---------------------------------------------------------------------------*/
FoamFile
{
    version     2.0;
    format      ascii;
    class       volScalarField;
    location    "9.3";
    object      gradTx;
}
// * * * * * * * * * * * * * * * * * * * * * * * * * * * * * * * * * * * * * //

dimensions      [0 -1 0 1 0 0 0];

internalField   nonuniform List<scalar> 
2048
(
0.0222026
0.0663607
0.109756
0.15181
0.191866
0.229194
0.263035
0.292659
0.317444
0.336938
0.350912
0.359372
0.362549
0.360861
0.354869
0.345226
0.332625
0.317763
0.301304
0.283855
0.265946
0.248021
0.230435
0.213457
0.197278
0.182024
0.16776
0.154508
0.14225
0.130941
0.120513
0.110889
0.101985
0.0937202
0.0860219
0.0788272
0.0720848
0.0657553
0.0598094
0.054227
0.0489947
0.0441043
0.0395498
0.0353261
0.0314273
0.0278454
0.0245703
0.0215893
0.0188879
0.0164501
0.0142589
0.0122966
0.0105455
0.00898764
0.00760539
0.00638135
0.00529849
0.00434005
0.00348947
0.00273031
0.00204604
0.00142002
0.000835485
0.000275747
0.065841
0.196811
0.325576
0.450444
0.569461
0.680443
0.781088
0.869182
0.942823
1.00064
1.04195
1.06677
1.07581
1.07036
1.05211
1.02303
0.985199
0.940713
0.891554
0.83953
0.786219
0.732935
0.680723
0.630374
0.582444
0.537291
0.495107
0.455944
0.419745
0.386366
0.355605
0.327222
0.300965
0.276594
0.253888
0.23266
0.212761
0.194073
0.176512
0.16002
0.144559
0.130107
0.116646
0.104165
0.0926456
0.0820651
0.0723933
0.0635927
0.05562
0.0484273
0.041964
0.0361778
0.0310157
0.0264249
0.0223529
0.0187484
0.015561
0.0127413
0.0102403
0.00800968
0.00600055
0.00416359
0.00244878
0.000807827
0.108109
0.323225
0.534906
0.740441
0.936622
1.11978
1.28598
1.43142
1.55282
1.64782
1.71524
1.75516
1.76885
1.75851
1.72705
1.6778
1.61427
1.53995
1.45816
1.37188
1.28372
1.19583
1.10991
1.02723
0.948664
0.874777
0.805853
0.741956
0.682971
0.628642
0.578617
0.532485
0.489819
0.45021
0.413294
0.378763
0.346369
0.315928
0.287304
0.260408
0.235183
0.211598
0.189632
0.169267
0.150478
0.133228
0.117467
0.103134
0.0901566
0.0784552
0.0679462
0.0585433
0.0501594
0.0427077
0.0361025
0.0302597
0.0250972
0.0205344
0.0164919
0.0128909
0.00965206
0.00669463
0.00393478
0.00129678
0.149288
0.446488
0.739332
1.02423
1.29674
1.55162
1.78315
1.9857
2.1544
2.28576
2.3781
2.4316
2.4482
2.43117
2.38478
2.31381
2.22329
2.11816
2.00308
1.88225
1.75927
1.63712
1.51809
1.40388
1.29563
1.19407
1.09953
1.01206
0.931465
0.857348
0.789185
0.726376
0.6683
0.614374
0.564082
0.516998
0.472786
0.431198
0.392057
0.35525
0.320712
0.288408
0.258321
0.230434
0.204717
0.181124
0.159584
0.14001
0.122302
0.106347
0.0920285
0.0792272
0.0678223
0.0576941
0.0487244
0.040798
0.0338023
0.0276275
0.0221653
0.0173084
0.0129489
0.00897644
0.00527202
0.00173559
0.189538
0.567114
0.939847
1.30344
1.65225
1.97934
2.27691
2.53715
2.75328
2.92049
3.03652
3.1018
3.1191
3.09299
3.02928
2.93438
2.81492
2.67738
2.52781
2.37165
2.21351
2.05714
1.90538
1.76028
1.6232
1.49496
1.3759
1.26601
1.16499
1.07229
0.98716
0.908795
0.836353
0.769061
0.706248
0.647372
0.592018
0.539881
0.490756
0.444513
0.401089
0.360458
0.322616
0.287555
0.255245
0.225629
0.198617
0.174097
0.151934
0.131985
0.1141
0.0981249
0.0839069
0.0712936
0.0601357
0.0502878
0.0416086
0.0339605
0.0272087
0.0212188
0.0158563
0.0109835
0.00644541
0.00211947
0.228893
0.685265
1.13688
1.57898
2.00477
2.40543
2.77067
3.09
3.35427
3.55705
3.69552
3.77045
3.78576
3.74762
3.66363
3.54201
3.39113
3.21909
3.03341
2.84079
2.64686
2.45612
2.27187
2.09645
1.93134
1.77738
1.63487
1.50373
1.3835
1.27344
1.17257
1.07981
0.994081
0.914394
0.839921
0.770011
0.704177
0.642073
0.583472
0.528245
0.476338
0.427747
0.382494
0.340589
0.302008
0.266684
0.234506
0.205331
0.178992
0.155311
0.134103
0.115182
0.0983616
0.0834582
0.0702918
0.0586879
0.0484781
0.0394993
0.0315917
0.0245962
0.0183534
0.0127003
0.00744553
0.00244538
0.267276
0.800763
1.33034
1.85109
2.35518
2.83162
3.26712
3.6478
3.96148
4.1998
4.35929
4.44139
4.45152
4.39788
4.29013
4.13855
3.95334
3.74433
3.52057
3.2901
3.05959
2.83421
2.61767
2.41247
2.22011
2.04138
1.87651
1.72529
1.58708
1.46093
1.34558
1.23963
1.14172
1.05062
0.965338
0.885134
0.80946
0.737945
0.670353
0.606563
0.546545
0.490332
0.437987
0.389549
0.345006
0.304282
0.267239
0.233701
0.203464
0.176311
0.152024
0.130384
0.111172
0.0941739
0.0791789
0.0659848
0.0543975
0.0442305
0.0353015
0.0274291
0.0204304
0.0141192
0.00826766
0.00271176
0.304493
0.913104
1.51959
2.11937
2.70363
3.25898
3.76837
4.2136
4.5786
4.85256
5.03147
5.11778
5.11903
5.04587
4.91044
4.72525
4.50248
4.25373
3.98968
3.71978
3.45178
3.19148
2.94287
2.70847
2.48967
2.28714
2.10099
1.93085
1.77594
1.63501
1.50648
1.38858
1.2796
1.17807
1.08282
0.993034
0.908131
0.82773
0.7516
0.679635
0.611844
0.548314
0.489166
0.434487
0.384281
0.338458
0.29685
0.259238
0.225376
0.195009
0.167885
0.143749
0.122354
0.103454
0.0868082
0.0721871
0.0593725
0.0481572
0.0383392
0.0297168
0.0220858
0.0152388
0.00891081
0.00291826
0.340247
1.02147
1.70355
2.38278
3.04963
3.68796
4.27609
4.79013
5.20899
5.51882
5.71519
5.80222
5.79024
5.69305
5.52564
5.30292
5.0391
4.74761
4.44086
4.12984
3.82341
3.52796
3.24757
2.98461
2.74024
2.51491
2.30856
2.1207
1.95034
1.79599
1.65564
1.52708
1.40817
1.29716
1.19275
1.09406
1.0005
0.911704
0.827454
0.74767
0.672406
0.601825
0.536134
0.475485
0.419903
0.369279
0.323402
0.282002
0.244787
0.211459
0.181732
0.15532
0.131947
0.111333
0.0932103
0.0773207
0.0634241
0.0512954
0.0407162
0.0314673
0.0233251
0.0160625
0.00937687
0.00306552
0.374142
1.12475
1.88061
2.63967
3.39203
4.11849
4.79156
5.37996
5.85589
6.20183
6.41324
6.49677
6.46657
6.34032
6.1363
5.87193
5.56345
5.22606
4.87403
4.5201
4.17436
3.84363
3.53191
3.24115
2.97215
2.72504
2.49958
2.29516
2.11065
1.94426
1.79352
1.65562
1.52792
1.40838
1.29557
1.18859
1.08691
0.99017
0.898189
0.810906
0.728429
0.651022
0.579013
0.512645
0.451966
0.396836
0.346986
0.302083
0.261779
0.225737
0.193635
0.16516
0.140005
0.117863
0.0984312
0.0814255
0.0665852
0.053671
0.0424521
0.0326951
0.0241584
0.0165972
0.00966997
0.00315496
0.405696
1.22157
2.04875
2.8878
3.72903
4.54994
5.3158
5.98558
6.52258
6.90473
7.12804
7.20301
7.14884
6.98806
6.74258
6.43238
6.07556
5.689
5.28896
4.89027
4.5044
4.13848
3.79604
3.47844
3.18583
2.91797
2.67447
2.45464
2.25726
2.08027
1.92062
1.77476
1.63943
1.51225
1.39174
1.27704
1.1677
1.06345
0.964096
0.869602
0.780132
0.696075
0.617935
0.54608
0.480578
0.421238
0.367712
0.319588
0.276456
0.237937
0.203679
0.173344
0.146599
0.123107
0.102529
0.0845516
0.0688974
0.0553171
0.0435724
0.0334189
0.0245995
0.0168524
0.00979596
0.00318863
0.434356
1.31033
2.20552
3.12434
4.05818
4.98113
5.8496
6.60962
7.21248
7.6306
7.86176
7.92204
7.83733
7.6361
7.34424
6.98408
6.57533
6.13627
5.68529
5.23991
4.81326
4.41248
4.04024
3.69689
3.3818
3.09423
2.83371
2.59955
2.39055
2.20446
2.03751
1.88513
1.7433
1.60934
1.48174
1.3598
1.24326
1.13188
1.02548
0.924038
0.827747
0.73716
0.653034
0.575908
0.50586
0.442612
0.385708
0.334642
0.288934
0.248166
0.211959
0.179958
0.151808
0.127138
0.105569
0.0867572
0.0704086
0.0562719
0.0441064
0.0336608
0.0246648
0.0168398
0.00976202
0.00316909
0.459524
1.38925
2.34813
3.34588
4.37629
5.41032
6.39359
7.25498
7.92935
8.38254
8.61623
8.65446
8.53174
8.28383
7.9407
7.52668
7.06262
6.56765
6.06255
5.56847
5.10062
4.66568
4.26482
3.89706
3.56068
3.25443
2.97782
2.73034
2.51094
2.3173
2.14479
1.98742
1.8402
1.70021
1.56605
1.43729
1.31391
1.19577
1.08265
0.974503
0.871519
0.774455
0.684438
0.602246
0.527937
0.461092
0.401117
0.347385
0.299342
0.256539
0.21858
0.185094
0.155715
0.130035
0.107627
0.0881062
0.0711714
0.0565766
0.0440859
0.0334446
0.024372
0.0165723
0.0095764
0.00309932
0.480577
1.45648
2.47352
3.5485
4.67947
5.83509
6.94826
7.925
8.67741
9.16367
9.39298
9.40036
9.23119
8.93017
8.53112
8.05971
7.53734
6.98304
6.4202
5.87524
5.36611
4.89817
4.47021
4.0796
3.72322
3.39923
3.10741
2.84746
2.61878
2.41923
2.24309
2.08237
1.93081
1.78546
1.64515
1.50986
1.38
1.25545
1.13593
1.02131
0.911707
0.80813
0.71226
0.625207
0.546942
0.476824
0.414089
0.357965
0.307816
0.26318
0.22365
0.188848
0.158407
0.131884
0.108779
0.0886665
0.0712408
0.0562745
0.043544
0.032795
0.0237397
0.0160639
0.00924827
0.00298271
0.496908
1.51013
2.57844
3.72779
4.96301
6.25226
7.51396
8.62374
9.46157
9.97708
10.1931
10.1593
9.93415
9.57358
9.11444
8.5826
7.99956
7.38246
6.75759
6.15932
5.60934
5.11015
4.65696
4.24531
3.87028
3.52939
3.22308
2.95139
2.71438
2.51064
2.33311
2.17079
2.01587
1.86568
1.7195
1.57787
1.44182
1.31123
1.18561
1.06477
0.948585
0.838344
0.73659
0.644895
0.563014
0.489964
0.424788
0.366541
0.314498
0.268213
0.227278
0.191312
0.15997
0.132769
0.109111
0.088509
0.0706728
0.055409
0.0425139
0.0317363
0.0227866
0.0153294
0.00878775
0.00282299
0.507954
1.54839
2.6596
3.87893
5.22137
6.6577
8.09083
9.35624
10.2877
10.8257
11.0174
10.9303
10.6384
10.2122
9.68944
9.09473
8.44962
7.76625
7.07394
6.41957
5.82992
5.30198
4.82573
4.39512
4.00283
3.64568
3.32551
3.04257
2.79793
2.59187
2.4156
2.25361
2.09609
1.94144
1.78952
1.64158
1.49966
1.36339
1.23199
1.10523
0.98245
0.865234
0.757481
0.661404
0.5763
0.50067
0.433385
0.373278
0.319528
0.271765
0.229574
0.192579
0.160489
0.132779
0.108706
0.0877059
0.0695229
0.0540227
0.0410284
0.0302922
0.0215309
0.0143844
0.00820602
0.00262432
0.513238
1.56966
2.71384
3.99685
5.44812
7.04612
8.67874
10.1289
11.1627
11.7122
11.8659
11.7118
11.3409
10.8437
10.2549
9.59536
8.88828
8.1352
7.36824
6.65444
6.02751
5.47424
4.97724
4.53009
4.12199
3.74889
3.41541
3.12148
2.86949
2.6631
2.49139
2.33184
2.17218
2.0133
1.85563
1.70121
1.55375
1.41222
1.27534
1.14307
1.01363
0.888905
0.774939
0.674823
0.58696
0.509107
0.440057
0.37835
0.323048
0.273959
0.230649
0.192731
0.16004
0.132004
0.107658
0.0863301
0.0678447
0.0521568
0.0391194
0.0284851
0.0199896
0.0132452
0.00751555
0.00239135
0.512405
1.57264
2.73825
4.07634
5.63593
7.4107
9.27701
10.9502
12.0952
12.6381
12.7382
12.5021
12.0376
11.4657
10.8095
10.0835
9.31685
8.49075
7.63917
6.86186
6.20189
5.62785
5.11227
4.65144
4.22901
3.83975
3.49356
3.18864
2.9289
2.72437
2.56146
2.40668
2.24479
2.08179
1.9182
1.75686
1.60431
1.45801
1.31588
1.17869
1.04253
0.909416
0.7889
0.685234
0.595178
0.515439
0.444988
0.381937
0.325187
0.274918
0.230613
0.191846
0.158693
0.130534
0.106061
0.0844537
0.065688
0.0498501
0.0368183
0.0263353
0.0181781
0.011929
0.00673052
0.00212933
0.505247
1.55641
2.7304
4.11231
5.77661
7.74281
9.88403
11.831
13.0958
13.6037
13.6331
13.2991
12.7233
12.0758
11.3526
10.5576
9.73742
8.83537
7.88481
7.039
6.3531
5.76417
5.2315
4.76054
4.32536
3.91885
3.56083
3.2447
2.97573
2.77543
2.627
2.47953
2.31442
2.14739
1.97764
1.80849
1.65153
1.50104
1.35377
1.21257
1.06962
0.926756
0.799207
0.692732
0.601176
0.519818
0.448368
0.384233
0.326064
0.274761
0.229579
0.189987
0.156505
0.128464
0.104017
0.0821469
0.0630976
0.047139
0.0341558
0.0238607
0.0161092
0.0104542
0.00586723
0.00184427
0.491731
1.52056
2.68851
4.10002
5.8612
8.03145
10.4966
12.7861
14.1778
14.6061
14.549
14.1012
13.3909
12.6717
11.8837
11.0152
10.1531
9.17294
8.10239
7.18194
6.48167
5.88523
5.3353
4.85896
4.41275
3.98647
3.61824
3.29051
3.00916
2.81569
2.68952
2.55211
2.38133
2.21058
2.03438
1.85584
1.69562
1.54166
1.389
1.24527
1.0955
0.94081
0.805585
0.697438
0.605228
0.522372
0.450394
0.385444
0.325769
0.273601
0.227668
0.187202
0.153515
0.125891
0.10164
0.0794758
0.0601105
0.0440569
0.0311634
0.0210761
0.0137926
0.00884064
0.00494464
0.00154315
0.472008
1.46522
2.61162
4.0354
5.88023
8.2629
11.109
13.8352
15.3581
15.6381
15.4839
14.9079
14.0306
13.2519
12.4039
11.4518
10.5685
9.5094
8.28777
7.28534
6.58891
5.99397
5.42344
4.94851
4.49331
4.04235
3.66702
3.3273
3.02785
2.84401
2.75101
2.62657
2.44532
2.27183
2.08899
1.89837
1.73683
1.58031
1.42134
1.27745
1.12101
0.95131
0.807593
0.699531
0.607693
0.523174
0.451271
0.385809
0.324356
0.271553
0.225016
0.183515
0.149742
0.122921
0.0990521
0.0764996
0.0567541
0.0406344
0.0278748
0.0179923
0.011233
0.00711091
0.00398485
0.00123399
0.446415
1.3911
2.49973
3.91541
5.82405
8.42015
11.7111
15.0048
16.6587
16.685
16.4362
15.7211
14.6286
13.8163
12.9156
11.8598
10.9901
9.85362
8.43472
7.34191
6.67744
6.09457
5.4945
5.03143
4.56977
4.08534
3.70874
3.35692
3.02973
2.85853
2.81415
2.70563
2.50543
2.33171
2.14229
1.93501
1.77556
1.6176
1.45019
1.30997
1.14723
0.957761
0.804589
0.699291
0.609041
0.522201
0.451222
0.385605
0.321812
0.268731
0.221785
0.178923
0.145175
0.119673
0.0963978
0.0732667
0.0530439
0.0369002
0.0243285
0.0146152
0.00842956
0.0052911
0.00301348
0.000925953
0.415457
1.29948
2.3539
3.73834
5.68339
8.48268
12.2865
16.3306
18.1082
17.7209
17.4059
16.5464
15.1651
14.3673
13.4246
12.2264
11.4269
10.2185
8.53402
7.34185
6.75177
6.19295
5.54514
5.11054
4.64575
4.11282
3.7455
3.38213
3.0118
2.85639
2.88264
2.79283
2.55957
2.39095
2.19551
1.96401
1.8124
1.65447
1.47434
1.34392
1.17569
0.959344
0.795668
0.697161
0.6099
0.519269
0.450501
0.385181
0.318027
0.265261
0.218179
0.173381
0.139769
0.116286
0.0938431
0.0698089
0.0489806
0.0328814
0.0205715
0.0109435
0.00537288
0.00341293
0.00205995
0.000629199
0.379789
1.19214
2.17628
3.50422
5.4501
8.42635
12.809
17.8605
19.7446
18.7031
18.3961
17.3959
15.6107
14.9109
13.9409
12.5309
11.8919
10.6225
8.57204
7.27218
6.81924
6.29732
5.56891
5.18968
4.7263
4.11994
3.78019
3.40704
2.96981
2.83334
2.96156
2.8928
2.60386
2.4507
2.25058
1.98251
1.84837
1.69229
1.4917
1.38076
1.20847
0.95477
0.779608
0.693827
0.611114
0.513942
0.449417
0.38499
0.312746
0.26129
0.214467
0.16679
0.133432
0.112928
0.0915857
0.0661329
0.0445484
0.0286043
0.0166635
0.00696709
0.0020429
0.00151637
0.00115731
0.000354596
0.340177
1.07132
1.97006
3.21501
5.11805
8.22378
13.2379
19.6584
21.6188
19.5647
19.4163
18.2912
15.9221
15.4593
14.4811
12.7406
12.4032
11.0914
8.52905
7.11601
6.89105
6.41896
5.55473
5.27425
4.81844
4.09857
3.81691
3.43764
2.89786
2.78331
3.05786
3.01168
2.63187
2.51281
2.31043
1.98604
1.88509
1.73316
1.49881
1.42249
1.24842
0.942097
0.754804
0.690317
0.613806
0.505399
0.448376
0.385633
0.305501
0.257009
0.211008
0.158975
0.126016
0.109805
0.0898628
0.06221
0.0397137
0.0240954
0.0126837
0.0026634
-0.00159462
-0.000346502
0.000341718
0.000113145
0.297458
0.939568
1.73938
2.87483
4.68423
7.84557
13.5121
21.809
23.7991
20.2043
20.4863
19.2677
16.0355
16.0335
15.0714
12.8055
12.9863
11.6607
8.37681
6.85181
6.98362
6.57319
5.48472
5.37208
4.93208
4.03576
3.86146
3.48242
2.78794
2.69784
3.18096
3.15762
2.63344
2.58026
2.37946
1.96781
1.92515
1.78021
1.49034
1.47185
1.29941
0.918471
0.719218
0.688125
0.619464
0.492263
0.447939
0.387929
0.295514
0.252679
0.208282
0.149659
0.117308
0.10718
0.0889618
0.0579612
0.0344255
0.0193816
0.00873763
-0.00200657
-0.00559221
-0.00210619
-0.000348858
-8.4849e-05
0.252502
0.799623
1.48909
2.48996
4.14984
7.26242
13.5416
24.4231
26.3778
20.4733
21.6421
20.3795
15.8583
16.6675
15.7511
12.6512
13.6771
12.3782
8.07573
6.45267
7.12007
6.78062
5.3315
5.49458
5.0811
3.91186
3.92216
3.55313
2.6294
2.56544
3.34346
3.34146
2.5933
2.65783
2.46411
1.91776
1.9725
1.83801
1.45825
1.53267
1.36661
0.879816
0.670326
0.689354
0.630052
0.472375
0.448916
0.39299
0.281581
0.248684
0.206933
0.138429
0.107019
0.105385
0.089231
0.0532391
0.0286178
0.0144896
0.00496752
-0.00710368
-0.0100258
-0.00366889
-0.000876804
-0.000230789
0.206163
0.654284
1.22456
2.06866
3.52137
6.44876
13.1978
27.6445
29.4792
20.1586
22.944
21.7062
15.2579
17.4133
16.5777
12.1701
14.5257
13.3072
7.57119
5.88581
7.33197
7.0687
5.05464
5.65834
5.2847
3.69801
4.01088
3.6656
2.40827
2.37075
3.56191
3.57758
2.48921
2.75288
2.57357
1.82129
2.03309
1.91312
1.39083
1.61028
1.45679
0.820432
0.605101
0.696864
0.648132
0.442504
0.452483
0.402314
0.261908
0.245586
0.207804
0.12469
0.0947759
0.104843
0.0910925
0.0478044
0.0222161
0.00944356
0.00156325
-0.0127173
-0.0150003
-0.00490752
-0.00120819
-0.000318853
0.159252
0.506265
0.951349
1.62079
2.81135
5.38815
12.3
31.6576
33.2697
18.9626
24.4864
23.36
14.0478
18.3476
17.6322
11.21
15.6014
14.5295
6.78924
5.11222
7.66097
7.47361
4.59635
5.88719
5.56908
3.35308
4.14437
3.84057
2.10664
2.09374
3.85772
3.88501
2.28971
2.87653
2.7206
1.65777
2.11557
2.01469
1.27152
1.71208
1.57873
0.732515
0.52003
0.714436
0.67702
0.397994
0.46035
0.4179
0.233918
0.244218
0.211987
0.107618
0.0801152
0.106087
0.0950561
0.0412984
0.0151471
0.00426058
-0.0012235
-0.0189734
-0.0206568
-0.00565066
-0.00131742
-0.000346826
0.112501
0.358088
0.674907
1.15728
2.03865
4.08085
10.6
36.6948
37.9707
16.4783
26.411
25.4949
11.9702
19.5801
19.0263
9.56082
16.9995
16.1492
5.63156
4.08678
8.16057
8.04268
3.87631
6.21482
5.96933
2.81992
4.34607
4.10459
1.70184
1.70872
4.25801
4.28868
1.95141
3.045
2.92251
1.39858
2.23222
2.15524
1.07739
1.84824
1.74353
0.605594
0.411173
0.746914
0.720979
0.332343
0.474966
0.442371
0.19401
0.245791
0.220862
0.0860926
0.0624825
0.109779
0.101734
0.0332088
0.00735565
-0.00105748
-0.00306308
-0.0260443
-0.0271797
-0.00566916
-0.00119344
-0.000316296
0.0665473
0.211988
0.400314
0.689385
1.22798
2.55395
7.76406
43.0461
43.8736
12.1598
28.9221
28.316
8.67696
21.2634
20.9105
6.93871
18.8488
18.2958
3.96979
2.75882
8.89747
8.83714
2.7856
6.68786
6.5316
2.02102
4.64822
4.49067
1.16578
1.18335
4.7965
4.8211
1.41579
3.28128
3.20224
1.00497
2.40006
2.35151
0.77745
2.03258
1.96499
0.425883
0.274302
0.800333
0.785438
0.236707
0.49978
0.47911
0.137281
0.252042
0.236138
0.0586323
0.0412378
0.116731
0.111858
0.0228315
-0.00117327
-0.0065364
-0.00352889
-0.0341599
-0.0348046
-0.0046603
-0.000847265
-0.000231632
0.0219195
0.0698537
0.132032
0.227846
0.40825
0.874243
3.35211
51.0675
51.3581
5.28962
32.3053
32.0896
3.70589
23.6046
23.4822
2.96807
21.3219
21.1271
1.63925
1.07344
9.95258
9.93557
1.17987
7.36966
7.31545
0.853534
5.0946
5.03892
0.464197
0.477688
5.51431
5.52413
0.605602
3.61716
3.58948
0.425469
2.64218
2.62545
0.330659
2.28364
2.25995
0.175575
0.105104
0.881995
0.877251
0.0993414
0.53955
0.532393
0.0572051
0.265407
0.259876
0.0233137
0.0156689
0.127922
0.126293
0.00922625
-0.0103841
-0.0122475
-0.00207592
-0.0436199
-0.0438275
-0.00222976
-0.000320883
-9.70112e-05
)
;

boundaryField
{
    left
    {
        type            calculated;
        value           uniform 0;
    }
    right
    {
        type            calculated;
        value           uniform 0;
    }
    interface
    {
        type            calculated;
        value           nonuniform List<scalar> 
64
(
0.0219195
0.0698537
0.132032
0.227846
0.40825
0.874243
3.35211
51.0675
51.3581
5.28962
32.3053
32.0896
3.70589
23.6046
23.4822
2.96807
21.3219
21.1271
1.63925
1.07344
9.95258
9.93557
1.17987
7.36966
7.31545
0.853534
5.0946
5.03892
0.464197
0.477688
5.51431
5.52413
0.605602
3.61716
3.58948
0.425469
2.64218
2.62545
0.330659
2.28364
2.25995
0.175575
0.105104
0.881995
0.877251
0.0993414
0.53955
0.532393
0.0572051
0.265407
0.259876
0.0233137
0.0156689
0.127922
0.126293
0.00922625
-0.0103841
-0.0122475
-0.00207592
-0.0436199
-0.0438275
-0.00222976
-0.000320883
-9.70112e-05
)
;
    }
    bottom
    {
        type            calculated;
        value           nonuniform List<scalar> 
64
(
0.0222026
0.0663607
0.109756
0.15181
0.191866
0.229194
0.263035
0.292659
0.317444
0.336938
0.350912
0.359372
0.362549
0.360861
0.354869
0.345226
0.332625
0.317763
0.301304
0.283855
0.265946
0.248021
0.230435
0.213457
0.197278
0.182024
0.16776
0.154508
0.14225
0.130941
0.120513
0.110889
0.101985
0.0937202
0.0860219
0.0788272
0.0720848
0.0657553
0.0598094
0.054227
0.0489947
0.0441043
0.0395498
0.0353261
0.0314273
0.0278454
0.0245703
0.0215893
0.0188879
0.0164501
0.0142589
0.0122966
0.0105455
0.00898764
0.00760539
0.00638135
0.00529849
0.00434005
0.00348947
0.00273031
0.00204604
0.00142002
0.000835485
0.000275747
)
;
    }
    defaultFaces
    {
        type            empty;
    }
}


// ************************************************************************* //
