/*--------------------------------*- C++ -*----------------------------------*\
| =========                 |                                                 |
| \\      /  F ield         | OpenFOAM: The Open Source CFD Toolbox           |
|  \\    /   O peration     | Version:  5.x                                   |
|   \\  /    A nd           | Web:      www.OpenFOAM.org                      |
|    \\/     M anipulation  |                                                 |
\*---------------------------------------------------------------------------*/
FoamFile
{
    version     2.0;
    format      ascii;
    class       volScalarField;
    location    "7.5";
    object      gradTx;
}
// * * * * * * * * * * * * * * * * * * * * * * * * * * * * * * * * * * * * * //

dimensions      [0 -1 0 1 0 0 0];

internalField   nonuniform List<scalar> 
2048
(
0.022147
0.0661942
0.109478
0.151421
0.191366
0.228584
0.262316
0.291835
0.316516
0.335912
0.349792
0.358162
0.361253
0.359483
0.353413
0.343693
0.331015
0.316074
0.299532
0.281993
0.263987
0.245956
0.228253
0.211147
0.194829
0.179423
0.164998
0.151578
0.139147
0.127666
0.11707
0.107288
0.0982423
0.0898567
0.0820635
0.0748042
0.0680312
0.0617072
0.0558043
0.0503021
0.0451858
0.0404445
0.0360689
0.03205
0.0283775
0.0250387
0.0220188
0.0193006
0.0168648
0.014691
0.0127575
0.0110425
0.00952396
0.00818022
0.00699031
0.00593411
0.00499262
0.00414805
0.00338396
0.00268517
0.00203779
0.00142899
0.00084695
0.000280593
0.0656765
0.196319
0.324755
0.449293
0.567983
0.678639
0.778963
0.866742
0.940079
0.997608
1.03863
1.06319
1.07198
1.06629
1.0478
1.01849
0.98044
0.935722
0.886319
0.834034
0.780438
0.726841
0.674284
0.623555
0.57521
0.52961
0.486948
0.447285
0.410573
0.376681
0.345419
0.316565
0.289884
0.265151
0.24216
0.220739
0.200747
0.182075
0.164642
0.148388
0.133271
0.119262
0.106335
0.0944623
0.0836155
0.0737574
0.064844
0.0568241
0.0496404
0.0432317
0.037534
0.0324821
0.0280107
0.0240556
0.0205545
0.0174478
0.0146792
0.0121961
0.00994974
0.00789545
0.00599215
0.00420215
0.00249067
0.000825189
0.10784
0.322421
0.533565
0.738562
0.934206
1.11683
1.2825
1.42743
1.54833
1.64285
1.70981
1.74931
1.76258
1.75185
1.72002
1.6704
1.60651
1.53182
1.44963
1.36292
1.2743
1.18591
1.09943
1.01612
0.936882
0.86226
0.792551
0.727829
0.667996
0.612817
0.561962
0.515047
0.471674
0.431461
0.39407
0.359213
0.326662
0.296244
0.267828
0.241324
0.216668
0.193816
0.17273
0.15337
0.13569
0.119632
0.105121
0.0920742
0.0803966
0.0699866
0.0607385
0.0525449
0.0452983
0.0388931
0.033227
0.028202
0.023726
0.0197127
0.0160828
0.0127633
0.0096874
0.00679398
0.0040273
0.0013345
0.148921
0.445386
0.737495
1.02165
1.29342
1.54757
1.77838
1.98022
2.14823
2.27893
2.37064
2.42355
2.43959
2.42203
2.37513
2.30367
2.21266
2.10703
1.99142
1.87001
1.74642
1.62358
1.50378
1.38872
1.27954
1.17697
1.08134
0.992725
0.910944
0.835637
0.76631
0.702401
0.643329
0.58855
0.537584
0.490037
0.445598
0.404035
0.365181
0.328919
0.295173
0.26389
0.235028
0.208541
0.184368
0.162429
0.142625
0.124836
0.108931
0.0947678
0.0821989
0.0710751
0.0612476
0.0525702
0.0449013
0.0381059
0.0320565
0.026635
0.0217324
0.0172491
0.013094
0.009184
0.00544482
0.00180463
0.189076
0.56573
0.937537
1.30019
1.64807
1.97423
2.27089
2.53023
2.74548
2.91186
3.0271
3.09164
3.10823
3.08146
3.01712
2.92161
2.80155
2.66339
2.51318
2.35632
2.19741
2.04018
1.88746
1.7413
1.60304
1.47351
1.35307
1.24172
1.13918
1.04493
0.958298
0.878504
0.804765
0.736358
0.672662
0.613176
0.557517
0.505403
0.456638
0.411093
0.368687
0.32937
0.293102
0.259837
0.229504
0.202006
0.177214
0.154975
0.135117
0.117457
0.101807
0.0879748
0.0757716
0.0650109
0.0555123
0.0471041
0.039625
0.0329257
0.0268691
0.0213302
0.0161953
0.011361
0.0067367
0.00223337
0.228342
0.683613
1.13412
1.5751
1.99977
2.39931
2.76344
3.08168
3.34489
3.54667
3.68419
3.75823
3.77271
3.7338
3.64906
3.52674
3.37516
3.2024
3.01597
2.82253
2.62771
2.43595
2.25057
2.07388
1.90736
1.75184
1.60765
1.47472
1.35263
1.24067
1.13794
1.04341
0.95606
0.874981
0.799401
0.72872
0.662492
0.600403
0.542237
0.487862
0.437203
0.390225
0.346902
0.307194
0.271029
0.238289
0.208815
0.182419
0.158886
0.137992
0.119505
0.103193
0.0888259
0.0761769
0.0650278
0.0551707
0.0464109
0.0385688
0.0314807
0.0249978
0.0189852
0.013321
0.00790077
0.00262
0.266641
0.798859
1.32715
1.84661
2.34939
2.82452
3.25872
3.63812
3.95058
4.18772
4.34611
4.42718
4.43637
4.38183
4.27325
4.12087
3.93489
3.72508
3.50048
3.2691
3.03757
2.81104
2.59321
2.38654
2.19255
2.012
1.84515
1.69181
1.55139
1.42298
1.30538
1.1973
1.09743
1.00464
0.91801
0.836858
0.760692
0.689175
0.62209
0.55931
0.500779
0.446487
0.396438
0.350609
0.308927
0.271257
0.237408
0.207148
0.180221
0.156356
0.135279
0.116718
0.1004
0.0860607
0.0734432
0.0623034
0.0524138
0.0435656
0.0355694
0.0282545
0.0214663
0.0150663
0.00893847
0.00296501
0.30378
0.910964
1.51601
2.11432
2.69709
3.25094
3.75884
4.2026
4.5662
4.83883
5.01648
5.10164
5.10182
5.02767
4.89133
4.70527
4.48166
4.23204
3.96709
3.6962
3.42708
3.16552
2.91547
2.67941
2.45876
2.25416
2.06574
1.89316
1.73566
1.59208
1.46092
1.34049
1.22919
1.12564
1.02879
0.93786
0.852352
0.771926
0.696372
0.625581
0.559526
0.49824
0.441769
0.390122
0.34323
0.300938
0.263016
0.229186
0.199142
0.172568
0.149147
0.128565
0.11051
0.094679
0.0807751
0.0685186
0.0576495
0.0479308
0.0391488
0.0311119
0.0236481
0.0166037
0.009854
0.00326979
0.339462
1.01911
1.69959
2.37719
3.04237
3.67902
4.26547
4.77786
5.19512
5.50346
5.69844
5.78419
5.77104
5.67277
5.50438
5.28072
5.01602
4.72362
4.41592
4.10385
3.79623
3.49941
3.21744
2.95266
2.70623
2.47858
2.26968
2.07903
1.90572
1.7483
1.6049
1.47339
1.35177
1.23841
1.1321
1.03205
0.93776
0.848907
0.765303
0.686862
0.613599
0.545603
0.482986
0.425806
0.374
0.327389
0.285695
0.248586
0.215701
0.186677
0.161153
0.138775
0.119195
0.102067
0.0870569
0.0738475
0.0621465
0.0516898
0.0422408
0.0335887
0.0255451
0.0179439
0.0106537
0.00353644
0.373292
1.12219
1.87631
2.63358
3.3841
4.10869
4.77988
5.36643
5.8406
6.18488
6.39475
6.47689
6.44542
6.31802
6.11296
5.84761
5.53821
5.19989
4.84688
4.49186
4.14487
3.81269
3.49926
3.20654
2.93528
2.68562
2.45731
2.24977
2.06191
1.89203
1.73777
1.59648
1.46566
1.34339
1.22837
1.1198
1.01724
0.920403
0.829134
0.743373
0.66318
0.588721
0.520206
0.457757
0.401326
0.350696
0.30553
0.265429
0.229975
0.198753
0.171361
0.147408
0.126507
0.108275
0.0923346
0.078332
0.0659426
0.054876
0.0448742
0.0357085
0.0271762
0.0191
0.0113453
0.00376752
0.404788
1.21883
2.04414
2.88125
3.72048
4.53932
5.3031
5.97083
6.50588
6.8862
7.10785
7.18131
7.12578
6.96378
6.71722
6.40601
6.04826
5.66077
5.25975
4.85995
4.47279
4.10534
3.7611
3.44138
3.14634
2.8757
2.62906
2.40576
2.20463
2.02369
1.86005
1.71031
1.5714
1.4411
1.31804
1.2015
1.09113
0.986717
0.888139
0.795358
0.708475
0.627759
0.553557
0.486087
0.425313
0.370964
0.322625
0.279819
0.24206
0.208885
0.179851
0.154534
0.132512
0.113362
0.0966639
0.0820227
0.0690824
0.057528
0.0470819
0.0374988
0.0285625
0.0200872
0.0119377
0.00396587
0.433399
1.30744
2.20064
3.11738
4.04904
4.96973
5.83591
6.59368
7.19439
7.61052
7.83988
7.89855
7.8124
7.6099
7.31691
6.95574
6.54605
6.10608
5.65414
5.20766
4.7797
4.37733
4.0032
3.65761
3.33991
3.04935
2.78541
2.54744
2.33428
2.14375
1.97229
1.81551
1.66961
1.53209
1.40159
1.27754
1.15977
1.04816
0.942609
0.843078
0.749706
0.662889
0.583174
0.510917
0.446081
0.388314
0.337103
0.291873
0.252067
0.217173
0.186713
0.160233
0.137282
0.117396
0.100107
0.0849754
0.0716148
0.0596882
0.0488999
0.0389894
0.0297275
0.0209215
0.01244
0.00413444
0.458526
1.38624
2.34302
3.33856
4.36662
5.39818
6.37895
7.23786
7.90988
8.36092
8.59268
8.6292
8.50498
8.25575
7.91146
7.49642
7.03145
6.53561
6.0296
5.53445
5.06528
4.62871
4.22588
3.85577
3.51663
3.20718
2.9269
2.67526
2.45126
2.25267
2.07507
1.91275
1.76095
1.61694
1.4795
1.34832
1.22351
1.10506
0.992836
0.886811
0.787111
0.69429
0.609193
0.532367
0.463756
0.402881
0.349098
0.301723
0.260118
0.223727
0.192044
0.164591
0.140895
0.120451
0.102731
0.0872499
0.0735917
0.0614007
0.0503657
0.0402115
0.0306953
0.0216195
0.0128614
0.0042761
0.479549
1.45337
2.46822
3.54087
4.66932
5.82227
6.93269
7.90672
8.65657
9.14051
9.36777
9.37336
9.20263
8.90024
8.50002
8.02759
7.50435
6.94924
6.38557
5.83959
5.32916
4.85956
4.42956
4.03651
3.67723
3.34986
3.05411
2.78967
2.55594
2.35089
2.16905
2.00277
1.84608
1.69623
1.55223
1.4142
1.28267
1.1577
1.03912
0.926846
0.820938
0.722137
0.631738
0.550559
0.478472
0.414805
0.358759
0.309511
0.266342
0.228664
0.195945
0.167695
0.143429
0.122599
0.104606
0.0889078
0.0750657
0.0627103
0.0515172
0.041197
0.0314908
0.0221977
0.0132106
0.00439345
0.49586
1.50695
2.573
3.7199
4.95245
6.23881
7.49749
8.6043
9.43936
9.9524
10.1663
10.1306
9.90381
9.54184
9.08151
8.54867
7.9648
7.34699
6.7214
6.1222
5.57093
5.07007
4.61479
4.2006
3.82255
3.47812
3.16765
2.89114
2.64864
2.43881
2.2549
2.08638
1.92574
1.77053
1.62024
1.47552
1.33755
1.2064
1.08175
0.963487
0.851451
0.746596
0.650915
0.565606
0.49037
0.42424
0.366239
0.315388
0.270874
0.232102
0.19852
0.169632
0.144963
0.12392
0.105805
0.0900116
0.0760892
0.0636608
0.0523914
0.0419778
0.0321392
0.022672
0.0134953
0.00448861
0.506897
1.54518
2.65408
3.87086
5.21046
6.64368
8.0735
9.33564
10.2641
10.7995
10.9889
10.8999
10.6063
10.1786
9.65472
9.05902
8.41315
7.72919
7.03631
6.38112
5.79022
5.2606
4.78221
4.34898
3.95358
3.59274
3.26821
2.98014
2.72955
2.51676
2.33336
2.16446
2.00062
1.84043
1.68396
1.53258
1.38843
1.25143
1.12102
0.997056
0.878935
0.76782
0.666803
0.577616
0.499595
0.43134
0.371702
0.31951
0.273851
0.234161
0.199873
0.170486
0.145572
0.124488
0.1064
0.0906231
0.0767131
0.0642943
0.0530237
0.0425856
0.0326658
0.0230575
0.0137218
0.00456305
0.512184
1.56645
2.70828
3.98866
5.43694
7.03158
8.66058
10.1072
11.1377
11.6844
11.8358
11.6797
11.3071
10.8084
10.2184
9.55791
8.85013
8.09661
7.32929
6.61481
5.98667
5.43171
4.93254
4.4827
4.07139
3.6945
3.35648
3.05715
2.79876
2.58495
2.40526
2.23805
2.07145
1.90648
1.7438
1.58558
1.43553
1.29307
1.15717
1.0279
0.903705
0.785934
0.679441
0.586688
0.506307
0.436268
0.375318
0.32204
0.275407
0.234963
0.200105
0.170335
0.145326
0.124382
0.106468
0.0908024
0.0769856
0.0646503
0.0534473
0.0430518
0.0330964
0.0233678
0.0138942
0.00461732
0.511365
1.56945
2.73272
4.06812
5.62457
7.39573
9.25805
10.9272
12.0688
12.6088
12.7064
12.4683
12.0021
11.4287
10.7713
10.0443
9.27705
8.45069
7.59901
6.82121
6.16006
5.58432
5.06653
4.60295
4.17726
3.78413
3.43325
3.12269
2.85613
2.64341
2.47156
2.30829
2.13886
1.96919
1.80015
1.63465
1.47909
1.33159
1.19044
1.05639
0.926125
0.80103
0.688811
0.592919
0.510682
0.439185
0.377259
0.323146
0.275672
0.234625
0.199321
0.169248
0.144285
0.123681
0.106088
0.0906065
0.0769515
0.0647655
0.0536915
0.0434079
0.0334577
0.0236146
0.014014
0.00465079
0.504232
1.55329
2.72495
4.10413
5.76517
7.72748
9.86431
11.8069
13.0679
13.5728
13.5997
13.2636
12.6862
12.0371
11.3127
10.5168
9.69597
8.79387
7.84358
6.99748
6.31043
5.71977
5.18488
4.71109
4.27261
3.86221
3.49937
3.17741
2.90126
2.69193
2.5334
2.37659
2.20338
2.02904
1.8534
1.67978
1.51928
1.36729
1.22097
1.08296
0.946633
0.81314
0.694822
0.59641
0.512925
0.440244
0.377703
0.323004
0.274763
0.233263
0.197625
0.167285
0.1425
0.122465
0.10534
0.0900871
0.0766514
0.0646731
0.0537809
0.0436854
0.0337781
0.0238071
0.0140792
0.00466146
0.490753
1.51755
2.68321
4.09198
5.84978
8.01587
10.4762
12.7607
14.1483
14.5736
14.5139
14.0641
13.3521
12.6313
11.8421
10.9727
10.11
9.13002
8.06023
7.13975
6.43829
5.84008
5.28794
4.80866
4.35914
3.92901
3.55583
3.22218
2.93337
2.72992
2.59226
2.44461
2.26526
2.08649
1.90399
1.72076
1.55631
1.4005
1.24879
1.10809
0.965779
0.822213
0.69728
0.597282
0.513286
0.439582
0.376832
0.3218
0.272779
0.230992
0.195126
0.164487
0.140007
0.120819
0.104314
0.0892881
0.0761216
0.0644036
0.0537336
0.0439168
0.0340894
0.0239514
0.0140837
0.00464571
0.471078
1.46235
2.60653
4.02759
5.86896
8.24717
11.0878
13.8085
15.3271
15.604
15.4471
14.8692
13.9903
13.2099
12.3606
11.4077
10.5237
9.46504
8.24482
7.24269
6.54494
5.94816
5.37548
4.89748
4.43896
3.98428
3.60386
3.2582
2.95117
2.75631
2.65007
2.51445
2.32436
2.142
1.95248
1.75712
1.59043
1.43163
1.27374
1.13237
0.98428
0.828076
0.695863
0.595699
0.512076
0.437293
0.374832
0.319742
0.269788
0.227924
0.191946
0.16088
0.136822
0.118838
0.103108
0.0882411
0.0753941
0.0639857
0.0535582
0.0441372
0.0344284
0.0240486
0.0140162
0.00459824
0.445541
1.3884
2.49491
3.90791
5.81305
8.40443
11.6893
14.9766
16.6259
16.6494
16.3977
15.6806
14.587
13.7727
12.8706
11.8142
10.9434
9.80775
8.39119
7.29904
6.63297
6.04819
5.4461
4.97971
4.51477
4.02686
3.64498
3.28731
2.95268
2.7693
2.70941
2.58877
2.3798
2.19607
1.99967
1.78794
1.62196
1.46128
1.29532
1.15652
1.0031
0.830367
0.690079
0.591899
0.509698
0.433402
0.371901
0.317063
0.265809
0.224176
0.188226
0.156461
0.132935
0.116631
0.101834
0.0869588
0.0744978
0.0634489
0.0532502
0.0443852
0.0348397
0.0240935
0.01386
0.00451214
0.414649
1.29698
2.3494
3.73126
5.6728
8.46713
12.2642
16.3008
18.0735
17.6838
17.3656
16.5043
15.1222
14.322
13.3779
12.1793
11.3782
10.171
8.49014
7.29906
6.70687
6.14603
5.49647
5.05817
4.59016
4.05417
3.68125
3.31224
2.935
2.76611
2.77384
2.67102
2.42963
2.24939
2.04673
1.81162
1.65144
1.49031
1.31252
1.18146
1.02354
0.828459
0.679224
0.586248
0.506679
0.42781
0.368257
0.314049
0.260788
0.219874
0.184138
0.151194
0.128304
0.114329
0.100624
0.0854256
0.0734605
0.0628264
0.0527862
0.044706
0.0353793
0.0240714
0.0135919
0.00437921
0.379054
1.18986
2.17215
3.49764
5.44007
8.41116
12.7863
17.8288
19.7079
18.6646
18.354
17.3521
15.5668
14.8639
13.8925
12.4826
11.841
10.5731
8.52813
7.22982
6.77391
6.24986
5.52022
5.13663
4.67012
4.06144
3.71547
3.33703
2.89401
2.74264
2.84823
2.76569
2.47022
2.30296
2.09549
1.82561
1.67975
1.52
1.32358
1.20842
1.04738
0.821335
0.662342
0.579294
0.503712
0.420231
0.364155
0.311057
0.25456
0.215161
0.179907
0.144993
0.122844
0.112096
0.0996377
0.0835842
0.0723133
0.0621611
0.0521151
0.045155
0.0361187
0.023954
0.013183
0.00419058
0.339521
1.06928
1.96635
3.20903
5.10874
8.20919
13.2149
19.6245
21.5797
19.5252
19.3723
18.2456
15.8774
15.4105
14.4309
12.6914
12.3498
11.0398
8.48551
7.07455
6.84523
6.37088
5.50633
5.22044
4.76162
4.04062
3.75164
3.36756
2.82398
2.69303
2.93927
2.87873
2.49548
2.35845
2.14872
1.82587
1.7083
1.55226
1.32556
1.23905
1.07706
0.807437
0.638168
0.571858
0.501712
0.410087
0.359917
0.308557
0.246796
0.210215
0.175824
0.137713
0.116416
0.11014
0.0990738
0.0813163
0.0710969
0.0615122
0.0511464
0.0458022
0.0371511
0.0236939
0.0125991
0.00393771
0.296885
0.93779
1.73612
2.86953
4.6758
7.83186
13.4891
21.7724
23.7574
20.1642
20.4402
19.2201
15.9907
15.9828
15.0192
12.7558
12.93
11.6064
8.33421
6.81183
6.93712
6.52434
5.43711
5.31729
4.87446
3.97894
3.79542
3.41219
2.71711
2.60912
3.05598
3.01804
2.49583
2.41855
2.21056
1.80628
1.73932
1.58996
1.3139
1.27565
1.11584
0.784445
0.605098
0.565118
0.501877
0.396379
0.355979
0.307171
0.236937
0.205274
0.172278
0.129126
0.108817
0.108731
0.0991805
0.0784175
0.0698718
0.0609662
0.0497344
0.0467397
0.0385974
0.0232165
0.0118025
0.00361363
0.252015
0.798117
1.48632
2.4854
4.14244
7.2499
13.5191
24.3832
26.333
20.4332
21.5936
20.3297
15.8142
16.6145
15.6967
12.602
13.6172
12.3205
8.03483
6.41492
7.07257
6.73072
5.28539
5.43848
5.02239
3.85701
3.85494
3.48244
2.56301
2.47983
3.21046
3.19408
2.45683
2.48757
2.28705
1.75772
1.77626
1.6372
1.28172
1.32139
1.1681
0.749016
0.561152
0.56073
0.505771
0.377514
0.352957
0.307741
0.224099
0.200667
0.169786
0.118895
0.0997609
0.108221
0.100273
0.0745645
0.0687321
0.0606489
0.0476559
0.0480907
0.0406151
0.0224093
0.0107554
0.00321447
0.205764
0.653054
1.22229
2.06488
3.51513
6.43777
13.1762
27.6005
29.4306
20.1197
22.8926
21.6536
15.2156
17.3576
16.5206
12.1226
14.4613
13.245
7.533
5.85123
7.2829
7.01728
5.01107
5.60037
5.22443
3.64635
3.94181
3.59383
2.34805
2.29039
3.41858
3.42069
2.35745
2.57226
2.38679
1.667
1.82433
1.69988
1.21901
1.38073
1.23957
0.696444
0.503973
0.560945
0.515423
0.351091
0.351737
0.311393
0.206955
0.196863
0.16902
0.106543
0.0888699
0.10906
0.102753
0.0692722
0.0678247
0.0607419
0.0445828
0.0500222
0.0434067
0.0211085
0.00942456
0.00274099
0.158941
0.505314
0.949589
1.61784
2.8064
5.37906
12.2801
31.6082
33.2163
18.9265
24.4313
23.304
14.0088
18.2883
17.5717
11.1661
15.5313
14.4615
6.75516
5.082
7.60951
7.42
4.55686
5.82655
5.50652
3.3064
4.07245
3.76673
2.05464
2.02157
3.70084
3.71616
2.16792
2.68285
2.52166
1.51539
1.89113
1.78617
1.11154
1.45986
1.33763
0.620247
0.430851
0.568728
0.533437
0.313627
0.3536
0.319624
0.183586
0.194537
0.170849
0.0914188
0.0756557
0.111821
0.107134
0.0618423
0.0673744
0.0615015
0.0400476
0.0527609
0.0472303
0.0190817
0.00778886
0.00219975
0.11228
0.357415
0.673661
1.15519
2.03508
4.07402
10.5831
36.6387
37.9114
16.4472
26.3512
25.4345
11.9371
19.5162
18.9615
9.52325
16.9219
16.0735
5.60346
4.06243
8.10554
7.98587
3.8431
6.15032
5.90337
2.78078
4.26984
4.02714
1.66055
1.64874
4.08326
4.10442
1.8472
2.83431
2.70777
1.27699
1.9875
1.90721
0.939603
1.56735
1.47164
0.511687
0.3388
0.587877
0.563138
0.260239
0.360381
0.334396
0.151301
0.194655
0.176366
0.0726519
0.0595084
0.117224
0.114067
0.0513003
0.0677159
0.0632809
0.0334004
0.056614
0.0524104
0.0160069
0.00584862
0.00160374
0.0664147
0.211588
0.399576
0.688138
1.22584
2.5497
7.75188
42.9812
43.8067
12.137
28.856
28.2495
8.65296
21.1932
20.8397
6.91134
18.7616
18.2098
3.9501
2.74221
8.83722
8.77571
2.76181
6.61783
6.46065
1.99304
4.56566
4.40748
1.13812
1.14098
4.59816
4.61656
1.33994
3.04799
2.96638
0.916635
2.12854
2.0778
0.676564
1.71486
1.65322
0.359218
0.224687
0.623118
0.608738
0.184269
0.374662
0.358234
0.106429
0.198579
0.186922
0.0491064
0.0396862
0.126153
0.124383
0.0363223
0.069332
0.0665546
0.0237602
0.0619937
0.0593491
0.0114474
0.00363824
0.000971753
0.0218758
0.0697219
0.131788
0.227434
0.407538
0.872796
3.34692
50.9914
51.2813
5.27982
32.2308
32.0151
3.69565
23.5258
23.4031
2.95632
21.222
21.0276
1.63119
1.06688
9.88495
9.86751
1.16982
7.29177
7.23724
0.841749
5.00292
4.94707
0.453554
0.460136
5.28494
5.29258
0.57306
3.35351
3.32494
0.387654
2.3348
2.31729
0.287119
1.9181
1.89654
0.147872
0.0854352
0.680155
0.675529
0.0768625
0.400011
0.394338
0.0440739
0.208199
0.204149
0.0193319
0.0153094
0.139679
0.139124
0.0151517
0.0728994
0.0719452
0.00995765
0.0694478
0.0685371
0.00482405
0.00124188
0.000326194
)
;

boundaryField
{
    left
    {
        type            calculated;
        value           uniform 0;
    }
    right
    {
        type            calculated;
        value           uniform 0;
    }
    interface
    {
        type            calculated;
        value           nonuniform List<scalar> 
64
(
0.0218758
0.0697219
0.131788
0.227434
0.407538
0.872796
3.34692
50.9914
51.2813
5.27982
32.2308
32.0151
3.69565
23.5258
23.4031
2.95632
21.222
21.0276
1.63119
1.06688
9.88495
9.86751
1.16982
7.29177
7.23724
0.841749
5.00292
4.94707
0.453554
0.460136
5.28494
5.29258
0.57306
3.35351
3.32494
0.387654
2.3348
2.31729
0.287119
1.9181
1.89654
0.147872
0.0854352
0.680155
0.675529
0.0768625
0.400011
0.394338
0.0440739
0.208199
0.204149
0.0193319
0.0153094
0.139679
0.139124
0.0151517
0.0728994
0.0719452
0.00995765
0.0694478
0.0685371
0.00482405
0.00124188
0.000326194
)
;
    }
    bottom
    {
        type            calculated;
        value           nonuniform List<scalar> 
64
(
0.022147
0.0661942
0.109478
0.151421
0.191366
0.228584
0.262316
0.291835
0.316516
0.335912
0.349792
0.358162
0.361253
0.359483
0.353413
0.343693
0.331015
0.316074
0.299532
0.281993
0.263987
0.245956
0.228253
0.211147
0.194829
0.179423
0.164998
0.151578
0.139147
0.127666
0.11707
0.107288
0.0982423
0.0898567
0.0820635
0.0748042
0.0680312
0.0617072
0.0558043
0.0503021
0.0451858
0.0404445
0.0360689
0.03205
0.0283775
0.0250387
0.0220188
0.0193006
0.0168648
0.014691
0.0127575
0.0110425
0.00952396
0.00818022
0.00699031
0.00593411
0.00499262
0.00414805
0.00338396
0.00268517
0.00203779
0.00142899
0.00084695
0.000280593
)
;
    }
    defaultFaces
    {
        type            empty;
    }
}


// ************************************************************************* //
