/*--------------------------------*- C++ -*----------------------------------*\
| =========                 |                                                 |
| \\      /  F ield         | OpenFOAM: The Open Source CFD Toolbox           |
|  \\    /   O peration     | Version:  5.x                                   |
|   \\  /    A nd           | Web:      www.OpenFOAM.org                      |
|    \\/     M anipulation  |                                                 |
\*---------------------------------------------------------------------------*/
FoamFile
{
    version     2.0;
    format      ascii;
    class       volScalarField;
    location    "5.1";
    object      gradTx;
}
// * * * * * * * * * * * * * * * * * * * * * * * * * * * * * * * * * * * * * //

dimensions      [0 -1 0 1 0 0 0];

internalField   nonuniform List<scalar> 
2048
(
0.0218359
0.0652608
0.107925
0.149251
0.188587
0.225209
0.258362
0.287325
0.311482
0.330387
0.343817
0.351779
0.354505
0.352414
0.346063
0.3361
0.323214
0.308095
0.291401
0.273734
0.25562
0.237497
0.219721
0.202559
0.186205
0.170786
0.156376
0.143002
0.130655
0.1193
0.108879
0.0993243
0.0905617
0.0825172
0.0751218
0.0683139
0.0620402
0.0562565
0.0509259
0.0460184
0.0415093
0.0373773
0.0336037
0.0301702
0.0270584
0.0242486
0.0217201
0.0194504
0.0174161
0.0155933
0.0139574
0.0124839
0.0111489
0.00992944
0.00880377
0.00775215
0.0067571
0.00580367
0.00487956
0.0039751
0.003083
0.00219817
0.00131738
0.000438844
0.0647569
0.193558
0.320159
0.442874
0.559759
0.668646
0.767254
0.853387
0.925167
0.981244
1.02094
1.04428
1.052
1.04535
1.02604
0.996019
0.957354
0.912113
0.862266
0.809603
0.755687
0.701821
0.649047
0.598151
0.549699
0.504057
0.461434
0.421903
0.385433
0.351909
0.321159
0.292975
0.267131
0.243407
0.221595
0.201513
0.183003
0.165935
0.150201
0.135714
0.122401
0.110201
0.0990604
0.0889253
0.079742
0.0714529
0.0639962
0.0573057
0.0513119
0.0459434
0.0411273
0.0367911
0.0328637
0.0292764
0.025965
0.0228706
0.0199413
0.0171329
0.0144089
0.011741
0.00910794
0.00649482
0.00389241
0.00129652
0.106338
0.317911
0.526052
0.728064
0.92075
1.10047
1.26333
1.40555
1.52389
1.61603
1.68081
1.71833
1.72985
1.71757
1.68439
1.63362
1.56874
1.4932
1.4103
1.32299
1.23385
1.14502
1.05818
0.974599
0.895172
0.820474
0.750815
0.686295
0.626842
0.57225
0.522218
0.476388
0.434378
0.395816
0.360356
0.327698
0.297586
0.269809
0.244193
0.220599
0.198913
0.17904
0.160894
0.144391
0.129446
0.115964
0.103844
0.0929784
0.0832524
0.0745481
0.0667458
0.059726
0.0533713
0.0475685
0.0422113
0.0372028
0.0324574
0.0279024
0.0234788
0.0191405
0.0148536
0.010595
0.00635008
0.00211485
0.146861
0.439199
0.727183
1.00723
1.27493
1.52507
1.75198
1.95008
2.11456
2.24198
2.33068
2.38089
2.39452
2.37485
2.32612
2.2531
2.16075
2.05399
1.93742
1.81519
1.69089
1.56746
1.44717
1.33172
1.22227
1.11957
1.02399
0.935624
0.854335
0.779804
0.711582
0.649141
0.59193
0.539415
0.491114
0.446607
0.405547
0.367647
0.332677
0.300453
0.270827
0.243676
0.218888
0.196355
0.175963
0.157585
0.141082
0.126303
0.113089
0.101278
0.0907027
0.0811977
0.0726001
0.0647522
0.0575059
0.050726
0.044294
0.0381098
0.0320924
0.0261798
0.0203272
0.0145055
0.00869535
0.00289563
0.186483
0.557936
0.92454
1.282
1.62472
1.94579
2.23749
2.49208
2.70284
2.86505
2.97649
3.03761
3.05118
3.02178
2.95516
2.85771
2.736
2.59645
2.44506
2.28719
2.12741
1.96943
1.81609
1.66942
1.53081
1.40109
1.28066
1.16958
1.06761
0.974297
0.889012
0.811037
0.739626
0.674074
0.613756
0.55814
0.50679
0.459355
0.415557
0.375174
0.338033
0.30399
0.27292
0.244694
0.219174
0.196202
0.175601
0.15718
0.140735
0.126057
0.112935
0.101156
0.0905135
0.0808037
0.0718362
0.0634375
0.055456
0.0477646
0.0402621
0.0328718
0.0255405
0.0182355
0.0109344
0.00364105
0.225241
0.674287
1.11856
1.55329
1.97173
2.36511
2.72324
3.03571
3.29349
3.49024
3.62317
3.69312
3.70398
3.66194
3.57452
3.44992
3.29642
3.12206
2.93426
2.73965
2.54381
2.35116
2.16502
1.98771
1.82072
1.66493
1.52071
1.38804
1.26656
1.15565
1.05446
0.96206
0.877478
0.799822
0.728319
0.662331
0.601344
0.544952
0.492839
0.444755
0.400509
0.35995
0.322944
0.289354
0.259021
0.231758
0.20735
0.185563
0.166149
0.148852
0.133417
0.119585
0.107103
0.0957234
0.0852105
0.0753516
0.0659615
0.0568871
0.0480082
0.0392355
0.0305094
0.0217971
0.0130745
0.00435354
0.263058
0.788078
1.30914
1.82133
2.31683
2.78474
3.21189
3.58451
3.89058
4.12184
4.27489
4.35121
4.35623
4.29811
4.18647
4.03152
3.84339
3.63178
3.40567
3.17298
2.94031
2.71276
2.49404
2.28662
2.09203
1.91111
1.74416
1.59103
1.45123
1.32392
1.20804
1.10235
1.00564
0.916822
0.834961
0.759324
0.689335
0.624547
0.564612
0.509264
0.458305
0.411585
0.368976
0.330339
0.295502
0.264249
0.236326
0.211451
0.189331
0.169666
0.152154
0.136494
0.122385
0.109532
0.0976538
0.0864963
0.07584
0.0655064
0.0553577
0.0452943
0.0352526
0.0252039
0.0151239
0.00503576
0.299745
0.89881
1.49567
2.08572
2.66018
3.20575
3.70554
4.1415
4.49776
4.76364
4.93522
5.01501
5.01051
4.93235
4.79262
4.60374
4.37779
4.12624
3.85966
3.58737
3.317
3.05429
2.80321
2.56626
2.34488
2.13979
1.95115
1.7787
1.62178
1.47933
1.34997
1.23216
1.1244
1.02534
0.933933
0.849348
0.770968
0.698318
0.631032
0.568833
0.511525
0.458975
0.411074
0.367695
0.328656
0.29371
0.262559
0.234874
0.210312
0.188528
0.169176
0.151913
0.13639
0.122264
0.109204
0.0969108
0.0851299
0.0736581
0.0623423
0.051075
0.0397915
0.0284709
0.0170913
0.00569041
0.335008
1.00568
1.67707
2.34545
3.00129
3.62859
4.20584
4.70939
5.11835
5.4191
5.60728
5.68706
5.66875
5.56609
5.39402
5.16733
4.90015
4.60573
4.29634
3.9828
3.67383
3.37575
3.09261
2.82679
2.57948
2.3512
2.14194
1.95132
1.77848
1.62215
1.48059
1.35187
1.23411
1.12574
1.02556
0.932695
0.8465
0.766494
0.6923
0.623636
0.560316
0.502237
0.449332
0.401499
0.35855
0.320204
0.286112
0.255891
0.229147
0.205488
0.18453
0.165886
0.149165
0.133968
0.11991
0.106643
0.0938763
0.0813832
0.0689975
0.0566069
0.0441483
0.0316138
0.0189854
0.00632011
0.368455
1.10758
1.85176
2.59888
3.33904
4.05319
4.71406
5.29069
5.75558
6.09142
6.2938
6.3694
6.33233
6.2002
5.9912
5.72266
5.41069
5.07031
4.7156
4.35908
4.01068
3.67712
3.36237
3.06844
2.79614
2.54567
2.31686
2.10919
1.92167
1.75276
1.60032
1.46191
1.33524
1.21845
1.11024
1.0097
0.91623
0.829341
0.748655
0.673884
0.604856
0.541517
0.483868
0.431851
0.385276
0.343819
0.30707
0.274584
0.24591
0.220614
0.198276
0.178471
0.160764
0.144699
0.129827
0.115747
0.102129
0.0887259
0.0753608
0.0619204
0.048346
0.0346479
0.0208145
0.00692718
0.399611
1.20315
2.01774
2.8438
3.67164
4.47893
5.23122
5.88791
6.41267
6.78371
6.99718
7.06358
7.00205
6.83501
6.5843
6.26978
5.90941
5.5199
5.11721
4.71593
4.3273
3.95836
3.61264
3.29153
2.99526
2.72364
2.47633
2.25271
2.05172
1.87157
1.70963
1.56281
1.42828
1.30393
1.18837
1.08074
0.980479
0.88715
0.800361
0.719812
0.645346
0.576976
0.514811
0.458864
0.40894
0.364659
0.325536
0.291048
0.260689
0.233985
0.210483
0.18973
0.171248
0.154518
0.139018
0.124281
0.109942
0.0957321
0.0814708
0.0670465
0.0524073
0.0375881
0.0225862
0.00751346
0.427929
1.29082
2.17258
3.07741
3.99666
4.90464
5.75811
6.50364
7.09301
7.49901
7.71955
7.77067
7.67817
7.47037
7.17306
6.80848
6.3962
5.95428
5.50079
5.05289
4.62344
4.21946
3.84366
3.49648
3.17735
2.88562
2.62082
2.38232
2.16905
1.97904
1.80906
1.65515
1.51383
1.38271
1.26041
1.14617
1.03958
0.940223
0.847698
0.761678
0.682006
0.608788
0.542299
0.482659
0.429662
0.382845
0.341626
0.305396
0.273586
0.245688
0.221226
0.199727
0.180679
0.163492
0.147548
0.132308
0.117368
0.102448
0.0873657
0.072016
0.0563544
0.0404478
0.0243064
0.0080801
0.452817
1.36883
2.31351
3.29633
4.31096
5.32861
6.29533
7.14073
7.80032
8.24039
8.46272
8.49127
8.36038
8.10563
7.75687
7.33838
6.87087
6.37325
5.86589
5.36943
4.89875
4.46043
4.05573
3.68379
3.34301
3.0322
2.75086
2.49846
2.27406
2.07561
1.89917
1.73957
1.59248
1.45533
1.32681
1.20639
1.09386
0.988866
0.890956
0.799753
0.715067
0.63713
0.566467
0.50336
0.447567
0.398504
0.355469
0.317749
0.284709
0.255816
0.230582
0.208529
0.189122
0.171689
0.155487
0.13989
0.124463
0.10892
0.0930825
0.0768585
0.0602084
0.0432387
0.0259791
0.00862726
0.47366
1.43532
2.43751
3.49668
4.61067
5.74843
6.84338
7.8025
8.53878
9.01093
9.2282
9.22545
9.0478
8.7397
8.33489
7.85898
7.3333
6.77666
6.21194
5.66484
5.15288
4.68137
4.24927
3.85411
3.49296
3.16404
2.86703
2.60161
2.36714
2.16176
1.98058
1.81676
1.66489
1.52234
1.38802
1.26175
1.14364
1.03338
0.930428
0.834323
0.744777
0.662177
0.587444
0.521087
0.462786
0.411773
0.367204
0.328238
0.294172
0.264466
0.238629
0.216197
0.196638
0.179178
0.162908
0.147092
0.131281
0.115191
0.098656
0.0816027
0.0639894
0.04597
0.0276055
0.00915388
0.489858
1.48844
2.54136
3.67409
4.89114
6.16096
7.40259
8.49297
9.31325
9.8137
10.0171
9.97277
9.7389
9.37105
8.90603
8.3697
7.78353
7.16452
6.53831
5.93825
5.38545
4.88247
4.4248
4.0082
3.62803
3.28186
2.96997
2.69226
2.44864
2.23788
2.05395
1.8875
1.73173
1.58429
1.44448
1.31258
1.18922
1.07406
0.966406
0.865686
0.771393
0.684095
0.605337
0.535957
0.475455
0.422796
0.376976
0.337
0.302094
0.271737
0.245442
0.222787
0.20328
0.186032
0.169886
0.153978
0.137873
0.121303
0.104117
0.0862762
0.0677174
0.0486484
0.0291831
0.00965726
0.500854
1.52639
2.62181
3.8238
5.14687
6.56211
7.97312
9.21712
10.1295
10.6516
10.8301
10.7322
10.4315
9.99779
9.46906
8.86987
8.22185
7.53714
6.84423
6.18854
5.59607
5.06407
4.58295
4.14694
3.74916
3.38644
3.06034
2.77088
2.51881
2.30433
2.12
1.95262
1.79369
1.64174
1.49661
1.35917
1.23087
1.1112
0.999172
0.894161
0.795192
0.703035
0.620232
0.548077
0.485715
0.431719
0.384938
0.344179
0.308593
0.277728
0.251095
0.228343
0.209098
0.192324
0.176502
0.160609
0.144287
0.127291
0.109493
0.0909055
0.0714126
0.0512769
0.0307048
0.0101327
0.506174
1.54759
2.6757
3.94076
5.37151
6.94664
8.55483
9.98131
10.9944
11.5272
11.6673
11.5023
11.1225
10.6177
10.0227
9.35873
8.64894
7.89525
7.12874
6.41423
5.78441
5.22674
4.72443
4.27137
3.85741
3.47855
3.13883
2.838
2.5778
2.36136
2.17949
2.01307
1.85144
1.6952
1.54479
1.40176
1.26884
1.14505
1.02899
0.920085
0.81648
0.719126
0.632173
0.557551
0.493718
0.438691
0.39125
0.349926
0.313785
0.282542
0.255661
0.232896
0.214127
0.198134
0.182843
0.167043
0.150567
0.13319
0.114804
0.0955168
0.0750971
0.0538548
0.0321571
0.0105731
0.505465
1.55074
2.70016
4.01983
5.55779
7.3078
9.14704
10.7938
11.9165
12.4421
12.5283
12.2813
11.808
11.2283
10.5658
9.83529
9.06604
8.24023
7.39053
6.6133
5.95026
5.37135
4.84999
4.38263
3.954
3.55889
3.20621
2.89415
2.62556
2.40908
2.23333
2.06994
1.9056
1.74517
1.58941
1.44049
1.30335
1.1759
1.0561
0.94383
0.835602
0.732458
0.641154
0.564477
0.499629
0.443859
0.396075
0.354396
0.317782
0.286282
0.259213
0.23646
0.218386
0.203551
0.189008
0.173328
0.156752
0.139028
0.120062
0.100137
0.0787979
0.0563765
0.0335189
0.0109681
0.498519
1.53494
2.69278
4.05597
5.69759
7.63703
9.74815
11.6656
12.9063
13.3964
13.4118
13.0671
12.4828
11.8272
11.0975
10.298
9.47513
8.57446
7.62778
6.78303
6.09365
5.49925
4.96031
4.48202
4.04032
3.62805
3.2633
2.93999
2.66182
2.44734
2.2826
2.12449
1.95668
1.79212
1.63086
1.47539
1.3346
1.20403
1.08065
0.965807
0.85297
0.743067
0.647097
0.568961
0.50364
0.447356
0.399585
0.357754
0.320678
0.289056
0.261829
0.23902
0.221872
0.208677
0.195109
0.179499
0.162875
0.144833
0.125264
0.104796
0.0825501
0.0588301
0.0347596
0.011304
0.485298
1.49976
2.6518
4.04446
5.78206
7.92346
10.355
12.6111
13.9769
14.3876
14.3163
13.8582
13.1399
12.4121
11.6174
10.7444
9.8792
8.90168
7.83782
6.91965
6.21507
5.61239
5.05579
4.57103
4.11799
3.68633
3.31106
2.97636
2.68596
2.47571
2.32862
2.17828
2.00501
1.83648
1.66953
1.50636
1.36279
1.22973
1.10273
0.986493
0.869094
0.75091
0.649832
0.57113
0.505981
0.449292
0.401959
0.360178
0.322544
0.290981
0.2636
0.240532
0.224552
0.21364
0.20128
0.185567
0.168965
0.150635
0.130391
0.109527
0.086402
0.0611953
0.0358365
0.0115634
0.465946
1.44534
2.57624
3.98127
5.80179
8.15348
10.9619
13.6499
15.1451
15.4082
15.2397
14.654
13.7696
12.9817
12.1265
11.1701
10.2826
9.22765
8.01665
7.018
6.31578
5.71362
5.13623
4.65137
4.18904
3.73355
3.3506
3.00446
2.69695
2.4933
2.37312
2.23318
2.0505
1.87868
1.70593
1.533
1.38817
1.2534
1.12221
1.00645
0.884632
0.755824
0.649064
0.571156
0.50694
0.449728
0.403388
0.36187
0.32341
0.292189
0.264641
0.240904
0.226348
0.218605
0.207688
0.191504
0.175053
0.15647
0.135391
0.114372
0.0904226
0.0634394
0.0366935
0.0117245
0.440789
1.37237
2.4661
3.86338
5.74725
8.31028
11.5589
14.8082
16.4326
16.4439
16.1805
15.4562
14.3585
13.5356
12.6273
11.5676
10.6915
9.56095
8.1583
7.07107
6.39825
5.80701
5.20036
4.72508
4.25605
3.76869
3.38333
3.02598
2.6931
2.49857
2.41842
2.29159
2.09251
1.91915
1.74078
1.55461
1.41104
1.27554
1.13871
1.02638
0.900458
0.757475
0.644341
0.569287
0.506889
0.448642
0.404088
0.363063
0.323237
0.292835
0.265109
0.23999
0.227123
0.22379
0.214544
0.197217
0.181171
0.16239
0.140171
0.119388
0.0947108
0.065512
0.0372583
0.0117621
0.410323
1.2821
2.32243
3.68909
5.60924
8.37353
12.1297
16.1213
17.8678
17.469
17.1384
16.2707
14.887
14.076
13.1254
11.9245
11.1148
9.91408
8.25388
7.06943
6.46681
5.89827
5.24508
4.79479
4.32244
3.78939
3.41109
3.04347
2.67193
2.48916
2.46764
2.35659
2.12943
1.9585
1.77508
1.56989
1.4319
1.29687
1.1514
1.04715
0.917751
0.75528
0.63501
0.5659
0.506315
0.445872
0.40431
0.364053
0.321879
0.293114
0.265227
0.237565
0.226659
0.229495
0.222122
0.202517
0.18737
0.168481
0.144569
0.124654
0.0994082
0.0673352
0.0374413
0.0116479
0.375188
1.17629
2.14734
3.45841
5.37968
8.31933
12.6483
17.6365
19.4883
18.4415
18.1165
17.1091
15.3261
14.609
13.6306
12.2206
11.5647
10.3049
8.29029
7.00059
6.52844
5.99533
5.26439
4.864
4.39295
3.79131
3.4364
3.06066
2.62987
2.46152
2.52507
2.43218
2.15824
1.99758
1.8104
1.57673
1.4515
1.31849
1.15877
1.06992
0.938111
0.748303
0.620172
0.561559
0.505864
0.44104
0.40437
0.365221
0.31903
0.293278
0.265315
0.233308
0.224625
0.23613
0.230783
0.207068
0.193735
0.174881
0.14832
0.13028
0.104715
0.0687903
0.0371352
0.0113522
0.336135
1.05716
1.94398
3.17327
5.0525
8.1206
13.0745
19.4171
21.3444
19.295
19.124
17.9929
15.6333
15.1463
14.1594
12.424
12.0588
10.7584
8.24847
6.84832
6.59382
6.10907
5.2479
4.93768
4.47419
3.76705
3.46283
3.08291
2.5619
2.41058
2.59652
2.52361
2.17382
2.03775
1.8491
1.57181
1.47108
1.34198
1.15832
1.09624
0.963713
0.735111
0.598632
0.5571
0.506399
0.433443
0.40469
0.367082
0.314144
0.293667
0.265827
0.22677
0.220547
0.244257
0.241008
0.210321
0.200408
0.18181
0.151016
0.13643
0.11091
0.0696983
0.0362168
0.0108467
0.293991
0.92721
1.71643
2.83773
4.62471
7.74822
13.3478
21.5467
23.5038
19.9297
20.1802
18.9569
15.746
15.7085
14.7373
12.486
12.6217
11.3091
8.10118
6.59194
6.67861
6.25423
5.17887
5.02295
4.57543
3.70491
3.49542
3.11782
2.46117
2.32925
2.68989
2.63781
2.16805
2.08126
1.89467
1.55004
1.49254
1.36972
1.14614
1.12822
0.997485
0.713589
0.568855
0.553722
0.509061
0.421904
0.40585
0.370344
0.306333
0.29475
0.267401
0.217343
0.213752
0.254633
0.25344
0.21142
0.207634
0.189609
0.152037
0.143343
0.118377
0.0697926
0.0345517
0.0101069
0.24961
0.789154
1.46951
2.45799
4.09747
7.17321
13.3794
24.135
26.0578
20.1984
21.3205
20.0544
15.5732
16.3286
15.4033
12.3343
13.2881
12.0032
7.81015
6.20569
6.80487
6.45061
5.03157
5.13029
4.70964
3.58703
3.54146
3.17589
2.31846
2.20794
2.81566
2.78395
2.12867
2.1317
1.95221
1.50383
1.51884
1.40516
1.11631
1.16878
1.04332
0.680705
0.528922
0.553103
0.515364
0.404584
0.408678
0.375983
0.294228
0.297178
0.270914
0.204219
0.203323
0.268275
0.268938
0.209089
0.215806
0.198788
0.150471
0.151369
0.127627
0.068683
0.0320035
0.009117
0.20384
0.645752
1.20849
2.0422
3.47719
6.37024
13.0418
27.3243
29.1292
19.891
22.6041
21.3638
14.9846
17.0575
16.2133
11.864
14.1064
12.9021
7.32256
5.65817
7.0027
6.7245
4.768
5.27493
4.89474
3.38724
3.61137
3.27117
2.1216
2.03386
2.98764
2.97412
2.03779
2.1947
2.02898
1.42219
1.5544
1.4532
1.06019
1.22194
1.10633
0.632213
0.476509
0.557516
0.527297
0.378734
0.414356
0.385342
0.275805
0.30186
0.277543
0.186349
0.188026
0.286517
0.288651
0.201477
0.225544
0.21009
0.145003
0.161013
0.139341
0.0658086
0.0284501
0.00787398
0.157482
0.499687
0.938886
1.60012
2.77624
5.32303
12.1562
31.2966
32.8828
18.7134
24.1239
22.9959
13.7968
17.9702
17.2472
10.927
15.1436
14.0851
6.56685
4.91214
7.31185
7.11049
4.33383
5.47884
5.1551
3.06816
3.71994
3.42213
1.85486
1.7904
3.22361
3.2242
1.87006
2.27879
2.13501
1.28948
1.60566
1.52073
0.965509
1.2933
1.19308
0.562302
0.408888
0.569959
0.547456
0.340397
0.424563
0.400243
0.248163
0.31006
0.288827
0.162393
0.166241
0.311084
0.314106
0.185971
0.237782
0.224561
0.133786
0.173002
0.154395
0.0603784
0.0238075
0.0063919
0.111264
0.35345
0.666077
1.14256
2.01328
4.03183
10.4774
36.282
37.5375
16.2636
26.0192
25.1024
11.757
19.174
18.6142
9.31852
16.4922
15.6532
5.44778
3.92464
7.78333
7.65372
3.65351
5.77314
5.52327
2.57788
3.88798
3.65232
1.49818
1.45633
3.54612
3.55494
1.59048
2.39657
2.28384
1.08403
1.6818
1.61709
0.815273
1.39046
1.31191
0.463175
0.322964
0.594269
0.57921
0.284048
0.441657
0.42313
0.207263
0.32352
0.306729
0.130677
0.135876
0.344163
0.347315
0.158976
0.253884
0.243638
0.114279
0.18836
0.173905
0.0513004
0.0180643
0.00470532
0.065822
0.20925
0.395081
0.680625
1.21274
2.52342
7.6751
42.567
43.3814
12.0025
28.4914
27.885
8.5227
20.8184
20.4615
6.76223
18.2771
17.7317
3.84088
2.64761
8.48076
8.41249
2.6246
6.20106
6.042
1.84596
4.14424
3.99105
1.02651
1.00509
3.98318
3.99322
1.15185
2.56602
2.49336
0.776443
1.79557
1.75481
0.586477
1.5238
1.47316
0.324581
0.215356
0.63522
0.626892
0.202172
0.468892
0.457214
0.147619
0.344615
0.333694
0.0891419
0.0942827
0.388478
0.390911
0.115649
0.275785
0.269241
0.0830526
0.208508
0.199261
0.0370965
0.0113283
0.00287057
0.0216835
0.0689544
0.130307
0.224952
0.403188
0.863823
3.31406
50.5037
50.7897
5.22174
31.822
31.6063
3.64015
23.1061
22.9823
2.8923
20.6659
20.4738
1.58643
1.0292
9.48133
9.46143
1.1113
6.82146
6.76627
0.778898
4.52789
4.4739
0.409092
0.404016
4.56893
4.57354
0.491818
2.8121
2.78669
0.327626
1.96429
1.95025
0.248648
1.70716
1.68943
0.133289
0.0825427
0.698586
0.696028
0.0847876
0.510673
0.506647
0.0619449
0.37654
0.372687
0.035307
0.0381677
0.447347
0.448298
0.0496015
0.306153
0.303877
0.0355767
0.235381
0.232162
0.0158073
0.0038867
0.00096364
)
;

boundaryField
{
    left
    {
        type            calculated;
        value           uniform 0;
    }
    right
    {
        type            calculated;
        value           uniform 0;
    }
    interface
    {
        type            calculated;
        value           nonuniform List<scalar> 
64
(
0.0216835
0.0689544
0.130307
0.224952
0.403188
0.863823
3.31406
50.5037
50.7897
5.22174
31.822
31.6063
3.64015
23.1061
22.9823
2.8923
20.6659
20.4738
1.58643
1.0292
9.48133
9.46143
1.1113
6.82146
6.76627
0.778898
4.52789
4.4739
0.409092
0.404016
4.56893
4.57354
0.491818
2.8121
2.78669
0.327626
1.96429
1.95025
0.248648
1.70716
1.68943
0.133289
0.0825427
0.698586
0.696028
0.0847876
0.510673
0.506647
0.0619449
0.37654
0.372687
0.035307
0.0381677
0.447347
0.448298
0.0496015
0.306153
0.303877
0.0355767
0.235381
0.232162
0.0158073
0.0038867
0.00096364
)
;
    }
    bottom
    {
        type            calculated;
        value           nonuniform List<scalar> 
64
(
0.0218359
0.0652608
0.107925
0.149251
0.188587
0.225209
0.258362
0.287325
0.311482
0.330387
0.343817
0.351779
0.354505
0.352414
0.346063
0.3361
0.323214
0.308095
0.291401
0.273734
0.25562
0.237497
0.219721
0.202559
0.186205
0.170786
0.156376
0.143002
0.130655
0.1193
0.108879
0.0993243
0.0905617
0.0825172
0.0751218
0.0683139
0.0620402
0.0562565
0.0509259
0.0460184
0.0415093
0.0373773
0.0336037
0.0301702
0.0270584
0.0242486
0.0217201
0.0194504
0.0174161
0.0155933
0.0139574
0.0124839
0.0111489
0.00992944
0.00880377
0.00775215
0.0067571
0.00580367
0.00487956
0.0039751
0.003083
0.00219817
0.00131738
0.000438844
)
;
    }
    defaultFaces
    {
        type            empty;
    }
}


// ************************************************************************* //
