/*--------------------------------*- C++ -*----------------------------------*\
| =========                 |                                                 |
| \\      /  F ield         | OpenFOAM: The Open Source CFD Toolbox           |
|  \\    /   O peration     | Version:  5.x                                   |
|   \\  /    A nd           | Web:      www.OpenFOAM.org                      |
|    \\/     M anipulation  |                                                 |
\*---------------------------------------------------------------------------*/
FoamFile
{
    version     2.0;
    format      ascii;
    class       volScalarField;
    location    "3.1";
    object      T;
}
// * * * * * * * * * * * * * * * * * * * * * * * * * * * * * * * * * * * * * //

dimensions      [0 0 0 1 0 0 0];

internalField   nonuniform List<scalar> 
2048
(
9.84895
9.84959
9.85086
9.85275
9.85523
9.85827
9.86181
9.86581
9.87018
9.87486
9.87976
9.8848
9.8899
9.89499
9.89999
9.90485
9.90953
9.91398
9.91819
9.92213
9.9258
9.9292
9.93232
9.93519
9.93782
9.94021
9.94238
9.94436
9.94615
9.94778
9.94925
9.95059
9.9518
9.9529
9.95389
9.9548
9.95561
9.95635
9.95701
9.95761
9.95815
9.95864
9.95907
9.95946
9.95981
9.96012
9.9604
9.96065
9.96087
9.96107
9.96125
9.96141
9.96155
9.96167
9.96178
9.96188
9.96197
9.96204
9.9621
9.96215
9.9622
9.96223
9.96225
9.96226
9.55293
9.55483
9.5586
9.56421
9.57157
9.58058
9.59111
9.60297
9.61597
9.62986
9.64442
9.65939
9.67453
9.68962
9.70446
9.71888
9.73273
9.74592
9.75837
9.77003
9.78088
9.79091
9.80015
9.80862
9.81636
9.82341
9.82983
9.83566
9.84095
9.84574
9.85009
9.85404
9.85761
9.86085
9.86378
9.86644
9.86884
9.87101
9.87297
9.87474
9.87633
9.87776
9.87904
9.88019
9.88122
9.88214
9.88296
9.8837
9.88435
9.88494
9.88546
9.88593
9.88634
9.88671
9.88704
9.88732
9.88758
9.88779
9.88798
9.88813
9.88825
9.88834
9.8884
9.88843
9.26842
9.27154
9.27774
9.28696
9.29907
9.3139
9.33124
9.35078
9.37219
9.39509
9.41907
9.44372
9.46863
9.49343
9.51781
9.54146
9.56418
9.58578
9.60615
9.6252
9.64291
9.65928
9.67434
9.68814
9.70074
9.71222
9.72266
9.73213
9.74073
9.74852
9.75559
9.76199
9.7678
9.77306
9.77783
9.78214
9.78605
9.78958
9.79276
9.79564
9.79822
9.80054
9.80263
9.80449
9.80616
9.80766
9.80899
9.81018
9.81124
9.81219
9.81304
9.8138
9.81447
9.81507
9.8156
9.81606
9.81647
9.81683
9.81713
9.81738
9.81757
9.81772
9.81782
9.81787
8.9942
8.99851
9.00709
9.01983
9.0366
9.05716
9.0812
9.10833
9.13805
9.16984
9.20312
9.23729
9.27181
9.30613
9.33982
9.37247
9.40377
9.4335
9.46149
9.48764
9.51192
9.53433
9.55492
9.57377
9.59097
9.60662
9.62084
9.63375
9.64546
9.65607
9.66568
9.6744
9.68231
9.68947
9.69596
9.70184
9.70715
9.71196
9.7163
9.72021
9.72372
9.72688
9.72971
9.73225
9.73452
9.73655
9.73836
9.73998
9.74143
9.74272
9.74387
9.74489
9.74581
9.74662
9.74734
9.74798
9.74854
9.74902
9.74943
9.74977
9.75004
9.75024
9.75038
9.75045
8.72925
8.73473
8.74563
8.76186
8.78322
8.80945
8.84016
8.87484
8.91286
8.95351
8.99605
9.03969
9.08372
9.12744
9.17027
9.21172
9.25139
9.289
9.32434
9.3573
9.38785
9.41601
9.44184
9.46546
9.48698
9.50656
9.52433
9.54045
9.55506
9.5683
9.5803
9.59117
9.60103
9.60997
9.61807
9.62541
9.63205
9.63805
9.64346
9.64834
9.65273
9.65667
9.6602
9.66336
9.66619
9.66871
9.67097
9.67298
9.67478
9.67638
9.67781
9.67909
9.68023
9.68124
9.68214
9.68294
9.68363
9.68424
9.68475
9.68518
9.68552
9.68577
9.68595
9.68603
8.47273
8.47935
8.49254
8.51219
8.53812
8.57
8.60738
8.64963
8.69599
8.74556
8.7974
8.85053
8.90404
8.95709
9.00895
9.05904
9.10688
9.15213
9.19457
9.23407
9.2706
9.30421
9.335
9.36311
9.38869
9.41193
9.43301
9.45212
9.46942
9.4851
9.49931
9.51219
9.52387
9.53446
9.54406
9.55275
9.56062
9.56773
9.57414
9.57992
9.58511
9.58978
9.59396
9.59769
9.60104
9.60402
9.60668
9.60906
9.61118
9.61307
9.61476
9.61627
9.61761
9.61881
9.61988
9.62082
9.62165
9.62237
9.62298
9.62349
9.62389
9.6242
9.6244
9.6245
8.22394
8.23167
8.2471
8.27014
8.30058
8.33811
8.3822
8.43211
8.48692
8.54552
8.60676
8.66945
8.73247
8.79482
8.85564
8.91424
8.97008
9.02276
9.07204
9.1178
9.16004
9.19882
9.23427
9.26659
9.29596
9.3226
9.34675
9.36862
9.38842
9.40635
9.42259
9.43732
9.45068
9.46279
9.47378
9.48373
9.49273
9.50087
9.50821
9.51482
9.52076
9.52609
9.53087
9.53513
9.53895
9.54235
9.54538
9.54809
9.55051
9.55266
9.55459
9.55631
9.55784
9.55921
9.56043
9.56151
9.56245
9.56328
9.56398
9.56457
9.56504
9.56539
9.56563
9.56575
7.98229
7.99111
8.00873
8.03509
8.07002
8.1132
8.16406
8.22174
8.28515
8.35297
8.42377
8.49613
8.56874
8.6404
8.71013
8.77713
8.84079
8.9007
8.95659
9.00835
9.056
9.09966
9.13949
9.17572
9.20861
9.23841
9.26539
9.28979
9.31187
9.33187
9.34998
9.36641
9.38131
9.39483
9.40709
9.4182
9.42826
9.43735
9.44554
9.45292
9.45955
9.46549
9.47081
9.47556
9.47979
9.48358
9.48695
9.48995
9.49264
9.49503
9.49717
9.49908
9.50079
9.50231
9.50367
9.50487
9.50594
9.50686
9.50765
9.50831
9.50884
9.50924
9.50951
9.50964
7.74731
7.75717
7.77692
7.80653
7.84591
7.89474
7.95244
8.01806
8.09027
8.16752
8.2481
8.33031
8.41259
8.4936
8.57219
8.64749
8.71884
8.78577
8.84803
8.90552
8.9583
9.00654
9.05046
9.09034
9.12647
9.15917
9.18873
9.21546
9.23962
9.2615
9.28132
9.2993
9.31561
9.33042
9.34386
9.35603
9.36706
9.37702
9.386
9.39408
9.40134
9.40784
9.41365
9.41883
9.42346
9.42758
9.43125
9.43453
9.43745
9.44006
9.44239
9.44447
9.44633
9.448
9.44949
9.45081
9.45198
9.453
9.45387
9.4546
9.45519
9.45563
9.45593
9.45607
7.51863
7.52949
7.55126
7.58403
7.62777
7.68226
7.74689
7.82061
7.90189
7.98885
8.07946
8.17171
8.26381
8.3542
8.44164
8.52515
8.60402
8.67777
8.74615
8.80911
8.86673
8.91925
8.96697
9.01022
9.04934
9.08469
9.11661
9.14543
9.17148
9.19506
9.21642
9.23581
9.25342
9.26941
9.28392
9.29708
9.30899
9.31975
9.32945
9.33818
9.346
9.35301
9.35927
9.36484
9.36981
9.37424
9.37818
9.3817
9.38483
9.38763
9.39013
9.39237
9.39437
9.39616
9.39777
9.3992
9.40046
9.40157
9.40252
9.40332
9.40397
9.40445
9.40477
9.40494
7.29594
7.30772
7.33142
7.36721
7.41522
7.47533
7.54698
7.62902
7.71966
7.81666
7.91759
8.02012
8.12217
8.22201
8.31826
8.40988
8.49612
8.5765
8.65076
8.7189
8.78107
8.83758
8.88881
8.93514
8.97699
9.01475
9.0488
9.07952
9.10726
9.13236
9.15512
9.17579
9.19457
9.21163
9.22713
9.24118
9.25391
9.2654
9.27576
9.28507
9.29342
9.30088
9.30754
9.31347
9.31874
9.32344
9.32762
9.33135
9.33467
9.33763
9.34028
9.34265
9.34478
9.34669
9.3484
9.34993
9.35129
9.35248
9.35351
9.35437
9.35507
9.35559
9.35595
9.35612
7.07901
7.09164
7.1171
7.15574
7.20787
7.27354
7.3523
7.4429
7.54325
7.65067
7.76228
7.87534
7.98749
8.09682
8.20185
8.30148
8.39494
8.48174
8.56163
8.63466
8.70108
8.76129
8.81574
8.86489
8.90921
8.94914
8.9851
9.01751
9.04676
9.07323
9.09723
9.11905
9.13889
9.15694
9.17333
9.18821
9.20167
9.21384
9.2248
9.23464
9.24346
9.25134
9.25835
9.26459
9.27013
9.27506
9.27945
9.28336
9.28684
9.28995
9.29273
9.29523
9.29746
9.29947
9.30128
9.3029
9.30435
9.30562
9.30672
9.30765
9.30839
9.30896
9.30934
9.30953
6.86766
6.88104
6.90809
6.94936
7.0054
7.07655
7.16249
7.26191
7.37238
7.49066
7.61331
7.73717
7.85958
7.97845
8.09222
8.19975
8.30027
8.39327
8.47854
8.55617
8.62654
8.69014
8.74752
8.79923
8.84577
8.88764
8.92531
8.95921
8.98979
9.01746
9.04257
9.06542
9.08623
9.10517
9.12239
9.13801
9.15215
9.16492
9.17643
9.18676
9.19601
9.20425
9.21157
9.21808
9.22386
9.22899
9.23356
9.23763
9.24125
9.24449
9.24738
9.24998
9.25231
9.25441
9.25631
9.25802
9.25954
9.26089
9.26206
9.26304
9.26384
9.26445
9.26486
9.26506
6.66179
6.67579
6.70421
6.74782
6.80752
6.88399
6.97717
7.08572
7.20679
7.33642
7.47053
7.60547
7.73828
7.8667
7.98915
8.10447
8.21187
8.31087
8.40125
8.48319
8.55718
8.62387
8.68391
8.73791
8.78645
8.83005
8.86921
8.90442
8.93616
8.96487
8.99096
9.01473
9.03642
9.05617
9.07414
9.09045
9.1052
9.11853
9.13053
9.14131
9.15093
9.1595
9.1671
9.17384
9.17982
9.18512
9.18984
9.19404
9.19779
9.20113
9.20412
9.2068
9.20922
9.21141
9.21338
9.21517
9.21677
9.21819
9.21942
9.22047
9.22132
9.22197
9.2224
9.22262
6.4613
6.47579
6.50532
6.55095
6.61397
6.69554
6.79598
6.91401
7.04623
7.18777
7.33378
7.4801
7.62342
7.7614
7.89245
8.01541
8.12953
8.23432
8.32955
8.41547
8.49275
8.56223
8.62465
8.68071
8.73102
8.77614
8.81661
8.85295
8.88568
8.91529
8.94223
8.96683
8.98931
9.00981
9.02846
9.04539
9.0607
9.07454
9.08699
9.09816
9.10813
9.11698
9.12482
9.13175
9.1379
9.14335
9.14819
9.15251
9.15635
9.15979
9.16286
9.16562
9.1681
9.17036
9.17241
9.17427
9.17594
9.17743
9.17873
9.17984
9.18074
9.18143
9.18189
9.18212
6.26616
6.28098
6.31134
6.35858
6.4245
6.51087
6.61857
6.74646
6.89049
7.04458
7.20294
7.36093
7.51486
7.66236
7.80191
7.93236
8.053
8.16338
8.26319
8.35276
8.43301
8.50498
8.56951
8.62738
8.67926
8.72571
8.7673
8.80461
8.83816
8.86852
8.8962
8.92154
8.94474
8.96592
8.98521
9.0027
9.01852
9.03281
9.04567
9.0572
9.06748
9.07659
9.08462
9.09172
9.098
9.10357
9.10852
9.11293
9.11685
9.12036
9.1235
9.12631
9.12886
9.13118
9.13329
9.13522
9.13696
9.13852
9.13988
9.14105
9.142
9.14273
9.14322
9.14346
6.07635
6.09134
6.12218
6.17059
6.2389
6.32967
6.44456
6.58274
6.73941
6.90673
7.07792
7.24785
7.41245
7.56937
7.7173
7.85506
7.98206
8.09785
8.20197
8.29483
8.37769
8.45185
8.51824
8.5777
8.63095
8.67855
8.72109
8.7592
8.79343
8.8244
8.8527
8.87872
8.90259
8.92439
8.94425
8.96226
8.97854
8.99324
9.00647
9.01832
9.02889
9.03821
9.04641
9.05363
9.06002
9.06568
9.07072
9.0752
9.07919
9.08276
9.08595
9.08881
9.09141
9.09378
9.09595
9.09794
9.09975
9.10137
9.1028
9.10403
9.10504
9.10581
9.10632
9.10658
5.89188
5.90686
5.93784
5.98689
6.05699
6.15163
6.27356
6.42254
6.59282
6.77416
6.95862
7.14079
7.31604
7.48224
7.63841
7.78329
7.91644
8.03751
8.14566
8.24142
8.32652
8.4026
8.4706
8.53143
8.58588
8.63446
8.6778
8.71657
8.75132
8.78274
8.81158
8.83822
8.8627
8.88508
8.90547
8.92394
8.94064
8.95572
8.96928
8.98142
8.99224
9.00176
9.01008
9.01739
9.02386
9.0296
9.0347
9.03924
9.04329
9.0469
9.05013
9.05303
9.05566
9.05807
9.06031
9.06236
9.06423
9.06591
9.0674
9.06869
9.06975
9.07056
9.07111
9.07137
5.71278
5.72756
5.75829
5.80741
5.8786
5.97644
6.10516
6.2655
6.45065
6.64682
6.84496
7.03967
7.2255
7.40073
7.56503
7.71679
7.85588
7.98215
8.09407
8.19228
8.27923
8.35698
8.42636
8.48835
8.54387
8.59327
8.63725
8.67654
8.71166
8.7434
8.77267
8.7999
8.82495
8.84786
8.86876
8.88764
8.9047
8.92013
8.93398
8.9464
8.95746
8.96714
8.97555
8.98291
8.98944
8.99523
9.00037
9.00497
9.00905
9.01269
9.01595
9.01888
9.02153
9.02398
9.02627
9.02838
9.03031
9.03206
9.03361
9.03496
9.03608
9.03693
9.0375
9.03778
5.53907
5.55346
5.58356
5.63215
5.7036
5.80382
5.93889
6.11123
6.31289
6.52473
6.73684
6.94444
7.14067
7.32461
7.49694
7.6553
7.80011
7.9316
8.04701
8.14718
8.23554
8.31475
8.38528
8.44824
8.50472
8.5548
8.59925
8.63897
8.67432
8.70621
8.73581
8.76363
8.78923
8.81262
8.83399
8.85325
8.87062
8.88637
8.90049
8.91314
8.92444
8.93426
8.94271
8.9501
8.95667
8.96248
8.96766
8.97229
8.97641
8.98007
8.98335
8.98628
8.98894
8.99143
8.99377
8.99594
8.99792
8.99973
9.00135
9.00275
9.00394
9.00484
9.00543
9.00572
5.37078
5.38461
5.41368
5.46109
5.53192
5.63348
5.77426
5.95928
6.17961
6.40795
6.63415
6.8551
7.06142
7.25358
7.43395
7.59855
7.7488
7.8857
8.00432
8.10584
8.19516
8.27569
8.34716
8.41088
8.46826
8.51887
8.56365
8.60373
8.63914
8.671
8.70085
8.72929
8.75541
8.77924
8.80109
8.82067
8.8383
8.85435
8.8687
8.88157
8.89311
8.90304
8.91149
8.91886
8.92546
8.93128
8.93647
8.94114
8.94527
8.94894
8.95224
8.95517
8.95783
8.96033
8.96274
8.96496
8.967
8.96887
8.97054
8.97201
8.97327
8.97422
8.97483
8.97512
5.20795
5.22103
5.2487
5.29428
5.3635
5.46516
5.61072
5.8091
6.05106
6.29657
6.53667
6.7717
6.98761
7.1873
7.3759
7.54628
7.70159
7.84434
7.96587
8.06801
8.15777
8.23961
8.31179
8.37604
8.43434
8.48533
8.53026
8.57068
8.60601
8.63762
8.66762
8.69679
8.72341
8.74761
8.76995
8.78979
8.80762
8.82398
8.83852
8.85157
8.86339
8.8734
8.88179
8.88912
8.89573
8.90156
8.90674
8.91145
8.91558
8.91925
8.92256
8.92548
8.92811
8.93063
8.93311
8.93538
8.93746
8.93941
8.94113
8.94266
8.944
8.94499
8.94562
8.94592
5.05059
5.06277
5.08867
5.13178
5.19835
5.29867
5.44766
5.65997
5.92769
6.19076
6.44411
6.69436
6.91908
7.12532
7.3227
7.49821
7.65804
7.80748
7.93157
8.0334
8.12302
8.20634
8.27898
8.34349
8.40285
8.45403
8.49893
8.53973
8.57481
8.60592
8.63597
8.66605
8.69313
8.71762
8.7405
8.76054
8.77848
8.79519
8.80987
8.82306
8.83521
8.84528
8.85355
8.86078
8.86743
8.87323
8.87839
8.88314
8.88726
8.89091
8.89424
8.89714
8.89973
8.90225
8.90481
8.90713
8.90926
8.91127
8.91305
8.91464
8.91607
8.91711
8.91776
8.91805
4.8987
4.90984
4.93365
4.97367
5.03652
5.13382
5.28441
5.51097
5.81025
6.0907
6.35595
6.62337
6.85569
7.06708
7.27436
7.45407
7.61761
7.77518
7.90136
8.00173
8.09054
8.17577
8.24855
8.31297
8.37368
8.42485
8.46944
8.51081
8.54544
8.57574
8.60572
8.63702
8.66448
8.68913
8.71269
8.73282
8.75078
8.76791
8.78265
8.79592
8.80851
8.81862
8.82668
8.83376
8.84047
8.84622
8.85133
8.85616
8.86025
8.86386
8.86723
8.87008
8.8726
8.87513
8.87779
8.88016
8.88231
8.88441
8.88623
8.88787
8.88942
8.89051
8.89116
8.89145
4.75229
4.76227
4.7837
4.82007
4.87812
4.97056
5.12027
5.3608
5.69995
5.99663
6.27143
6.5592
6.79729
7.01184
7.23106
7.41357
7.57959
7.74761
7.8752
7.97268
8.05986
8.14786
8.22035
8.28419
8.34682
8.39764
8.4416
8.48388
8.51783
8.54693
8.57665
8.60968
8.6374
8.66202
8.68646
8.70656
8.72438
8.74208
8.7568
8.77006
8.78326
8.79335
8.8011
8.80797
8.81481
8.82048
8.82551
8.83045
8.83449
8.83804
8.84147
8.84426
8.84668
8.84919
8.85201
8.8544
8.85657
8.85877
8.86061
8.8623
8.864
8.86514
8.86578
8.86606
4.61131
4.62004
4.63887
4.67109
4.72334
4.80891
4.95453
5.20766
5.59857
5.90879
6.18936
6.50264
6.74372
6.95856
7.19321
7.37644
7.54304
7.72517
7.85311
7.94591
8.03045
8.12268
8.19423
8.25679
8.32228
8.37231
8.41515
8.45894
8.49191
8.51933
8.54856
8.58405
8.61181
8.63613
8.66182
8.68168
8.69916
8.71769
8.73222
8.74535
8.75943
8.76943
8.77673
8.78333
8.7904
8.79594
8.80083
8.80596
8.80992
8.81336
8.81692
8.81962
8.8219
8.82437
8.8274
8.8298
8.83196
8.8343
8.83615
8.83786
8.83975
8.84093
8.84156
8.84183
4.47573
4.48314
4.49919
4.52686
4.57237
4.64901
4.78654
5.04905
5.50877
5.82741
6.10799
6.45495
6.69483
6.90587
7.16156
7.34242
7.50672
7.7085
7.83509
7.92104
8.00166
8.10044
8.17005
8.23035
8.30018
8.34872
8.38979
8.43607
8.46762
8.49278
8.52114
8.56024
8.58765
8.61125
8.63878
8.65811
8.67497
8.69472
8.70886
8.72165
8.73702
8.7468
8.75351
8.75974
8.7672
8.77254
8.77723
8.78266
8.78648
8.78978
8.79352
8.7961
8.79819
8.80059
8.80394
8.80631
8.80842
8.81095
8.81278
8.81449
8.81664
8.81785
8.81844
8.81868
4.34548
4.35153
4.36468
4.38749
4.4255
4.49119
4.61579
4.88143
5.43431
5.75268
6.02481
6.418
6.65041
6.85187
7.13736
7.31122
7.46897
7.69865
7.82116
7.8977
7.97267
8.08154
8.1477
8.20429
8.28079
8.32678
8.36512
8.41539
8.44492
8.46715
8.49407
8.53843
8.56487
8.58716
8.61742
8.63578
8.65161
8.67323
8.68665
8.69879
8.71605
8.72542
8.73135
8.73709
8.7452
8.75024
8.75461
8.76052
8.76412
8.76719
8.77125
8.77366
8.77551
8.7778
8.7816
8.78389
8.78589
8.7887
8.79045
8.79211
8.79464
8.79584
8.79638
8.79659
4.22048
4.22516
4.23534
4.2531
4.283
4.33592
4.44208
4.6999
5.38045
5.68464
5.93632
6.39456
6.61022
6.79403
7.12247
7.28259
7.42756
7.69716
7.81124
7.8755
7.94245
8.06662
8.12703
8.17792
8.26451
8.30637
8.34065
8.39716
8.42377
8.4423
8.4669
8.51891
8.5434
8.56354
8.59788
8.61462
8.62886
8.65329
8.6655
8.67655
8.69659
8.70524
8.71019
8.71527
8.72441
8.72896
8.73287
8.73952
8.74279
8.74553
8.75009
8.75226
8.7538
8.75589
8.76035
8.76248
8.76429
8.76751
8.76912
8.77066
8.7737
8.77485
8.77531
8.77548
4.10064
4.10394
4.11115
4.12377
4.14519
4.18384
4.26572
4.49774
5.35438
5.62312
5.83774
6.38855
6.57395
6.72895
7.11962
7.25624
7.37954
7.70626
7.80514
7.8541
7.90969
8.05668
8.10793
8.15029
8.25197
8.28738
8.31576
8.38175
8.40409
8.41813
8.43908
8.50211
8.52318
8.54001
8.58039
8.59456
8.60642
8.63506
8.64537
8.65469
8.67876
8.6862
8.68996
8.69414
8.70484
8.70867
8.71192
8.71969
8.72244
8.72471
8.73003
8.73185
8.73301
8.7348
8.7402
8.74203
8.74356
8.74736
8.74873
8.75006
8.75381
8.75484
8.75519
8.75532
3.98583
3.98779
3.99206
3.99955
4.01233
4.03574
4.08779
4.2658
5.36581
5.56764
5.72269
6.40539
6.54114
6.65214
7.1326
7.23186
7.32105
7.72905
7.80239
7.83323
7.87272
8.0531
8.09021
8.1202
8.24408
8.26966
8.28965
8.36972
8.3858
8.3946
8.40988
8.48865
8.50411
8.51605
8.5653
8.57554
8.58393
8.61877
8.62619
8.63289
8.66275
8.66823
8.67059
8.67353
8.68655
8.68931
8.6916
8.70104
8.70302
8.70462
8.71107
8.71238
8.71311
8.71441
8.72117
8.72251
8.7236
8.72825
8.72924
8.73022
8.73497
8.73576
8.73598
8.73605
3.87594
3.87658
3.87799
3.88046
3.88469
3.89249
3.91053
3.99189
5.42751
5.51724
5.58285
6.45243
6.51117
6.55781
7.16657
7.20913
7.2471
7.76977
7.80217
7.81278
7.8294
8.05778
8.07368
8.08613
8.24211
8.25303
8.26128
8.36185
8.36872
8.37174
8.37837
8.47936
8.48608
8.49104
8.55309
8.55746
8.56094
8.60475
8.6079
8.61073
8.64883
8.65123
8.65204
8.65327
8.66966
8.67083
8.67178
8.68363
8.68448
8.68514
8.69324
8.6938
8.69405
8.69461
8.70328
8.70386
8.70432
8.7102
8.71062
8.71104
8.71719
8.71755
8.71762
8.71765
)
;

boundaryField
{
    left
    {
        type            zeroGradient;
    }
    right
    {
        type            zeroGradient;
    }
    interface
    {
        type            fixedValue;
        value           nonuniform List<scalar> 
64
(
3.8222
3.8222
3.8222
3.8222
3.8222
3.8222
3.8222
3.8222
5.49324
5.49324
5.49324
6.49685
6.49685
6.49685
7.19814
7.19814
7.19814
7.80264
7.80264
7.80264
7.80264
8.06569
8.06569
8.06569
8.24498
8.24498
8.24498
8.36048
8.36048
8.36048
8.36048
8.47731
8.47731
8.47731
8.54864
8.54864
8.54864
8.59897
8.59897
8.59897
8.64297
8.64297
8.64297
8.64297
8.66181
8.66181
8.66181
8.67542
8.67542
8.67542
8.68473
8.68473
8.68473
8.68473
8.69475
8.69475
8.69475
8.70152
8.70152
8.70152
8.70866
8.70866
8.70866
8.70866
)
;
    }
    bottom
    {
        type            fixedValue;
        value           uniform 10;
    }
    defaultFaces
    {
        type            empty;
    }
}


// ************************************************************************* //
