/*--------------------------------*- C++ -*----------------------------------*\
| =========                 |                                                 |
| \\      /  F ield         | OpenFOAM: The Open Source CFD Toolbox           |
|  \\    /   O peration     | Version:  5.x                                   |
|   \\  /    A nd           | Web:      www.OpenFOAM.org                      |
|    \\/     M anipulation  |                                                 |
\*---------------------------------------------------------------------------*/
FoamFile
{
    version     2.0;
    format      ascii;
    class       volScalarField;
    location    "9.8";
    object      gradTy;
}
// * * * * * * * * * * * * * * * * * * * * * * * * * * * * * * * * * * * * * //

dimensions      [0 -1 0 1 0 0 0];

internalField   nonuniform List<scalar> 
2048
(
-20.1561
-20.0593
-19.8667
-19.5805
-19.2043
-18.7431
-18.2038
-17.5947
-16.9259
-16.2085
-15.4546
-14.6764
-13.8859
-13.0942
-12.3115
-11.5464
-10.8061
-10.0964
-9.42142
-8.7838
-8.18508
-7.62568
-7.10517
-6.62241
-6.1758
-5.7634
-5.38306
-5.03257
-4.70969
-4.41229
-4.13836
-3.88604
-3.65369
-3.43983
-3.24316
-3.06254
-2.89694
-2.74544
-2.6072
-2.48143
-2.36737
-2.26429
-2.17147
-2.08819
-2.01376
-1.94749
-1.88871
-1.83679
-1.79111
-1.75108
-1.71617
-1.68586
-1.65968
-1.6372
-1.61803
-1.6018
-1.58819
-1.57691
-1.56772
-1.56039
-1.55474
-1.55064
-1.54796
-1.54664
-20.2344
-20.1368
-19.9423
-19.6533
-19.273
-18.8064
-18.2602
-17.6431
-16.9651
-16.2381
-15.4743
-14.6864
-13.8868
-13.087
-12.2972
-11.5263
-10.7815
-10.0684
-9.39115
-8.75233
-8.15326
-7.59423
-7.07461
-6.59316
-6.14812
-5.73745
-5.35892
-5.01022
-4.68908
-4.3933
-4.12086
-3.86988
-3.63872
-3.42591
-3.23017
-3.05037
-2.88551
-2.7347
-2.5971
-2.47194
-2.35848
-2.25598
-2.16373
-2.08102
-2.00714
-1.94141
-1.88315
-1.83172
-1.78651
-1.74692
-1.71242
-1.68249
-1.65666
-1.6345
-1.61562
-1.59965
-1.58627
-1.5752
-1.56618
-1.559
-1.55347
-1.54945
-1.54683
-1.54554
-20.3833
-20.2841
-20.0864
-19.792
-19.404
-18.9271
-18.3679
-17.7352
-17.0399
-16.2942
-15.5113
-14.7049
-13.8879
-13.0725
-12.2693
-11.4873
-10.7338
-10.0145
-9.33314
-8.69214
-8.09255
-7.53431
-7.01651
-6.53762
-6.09563
-5.6883
-5.31323
-4.96797
-4.65014
-4.35747
-4.08786
-3.83942
-3.6105
-3.39967
-3.20566
-3.02741
-2.86394
-2.71441
-2.57801
-2.454
-2.34165
-2.24025
-2.14909
-2.06745
-1.99462
-1.92991
-1.87264
-1.82215
-1.77782
-1.73907
-1.70534
-1.67613
-1.65097
-1.62942
-1.61108
-1.5956
-1.58266
-1.57198
-1.56329
-1.55638
-1.55108
-1.54723
-1.54472
-1.54348
-20.5943
-20.493
-20.291
-19.9894
-19.5908
-19.0994
-18.5217
-17.8668
-17.1462
-16.3735
-15.5631
-14.7298
-13.8879
-13.0502
-12.2279
-11.4303
-10.6647
-9.93669
-9.24976
-8.60595
-8.00588
-7.44903
-6.93404
-6.45895
-6.02145
-5.61897
-5.2489
-4.90858
-4.59549
-4.30722
-4.04162
-3.79676
-3.57099
-3.3629
-3.17131
-2.9952
-2.83366
-2.6859
-2.55117
-2.42876
-2.31797
-2.21811
-2.12848
-2.04835
-1.97701
-1.91375
-1.85787
-1.80871
-1.76563
-1.72806
-1.69543
-1.66723
-1.643
-1.6223
-1.60474
-1.58995
-1.57763
-1.56748
-1.55926
-1.55274
-1.54775
-1.54414
-1.54179
-1.54064
-20.8602
-20.7567
-20.5496
-20.2396
-19.8281
-19.3187
-18.7175
-18.0341
-17.2809
-16.4731
-15.6271
-14.7592
-13.8853
-13.0192
-12.1727
-11.3555
-10.575
-9.8363
-9.14276
-8.49588
-7.89567
-7.34099
-6.82991
-6.35994
-5.92832
-5.53216
-5.16852
-4.83455
-4.52749
-4.24482
-3.98426
-3.74387
-3.52199
-3.31729
-3.12866
-2.95515
-2.79597
-2.65037
-2.51768
-2.39724
-2.28839
-2.19045
-2.10274
-2.02451
-1.95504
-1.8936
-1.83947
-1.79197
-1.75047
-1.71437
-1.68311
-1.65619
-1.63312
-1.61348
-1.59688
-1.58296
-1.57141
-1.56194
-1.5543
-1.54827
-1.54368
-1.54036
-1.53821
-1.53716
-21.1743
-21.0686
-20.8566
-20.5375
-20.1117
-19.5814
-18.9524
-18.2344
-17.4414
-16.5906
-15.7008
-14.7909
-13.8783
-12.9782
-12.1031
-11.2629
-10.465
-9.71422
-9.01348
-8.36363
-7.76394
-7.21247
-6.70654
-6.24306
-5.81875
-5.43031
-5.07449
-4.74815
-4.44833
-4.17232
-3.91773
-3.68255
-3.46518
-3.26436
-3.07909
-2.90856
-2.75204
-2.60891
-2.47856
-2.36038
-2.25377
-2.15808
-2.07261
-1.99663
-1.92937
-1.87008
-1.81802
-1.77248
-1.73283
-1.69846
-1.66881
-1.64337
-1.62166
-1.60327
-1.58779
-1.57488
-1.56423
-1.55555
-1.54859
-1.54314
-1.53901
-1.53604
-1.53413
-1.53319
-21.5307
-21.4232
-21.2067
-20.8789
-20.4381
-19.8849
-19.2239
-18.4655
-17.6253
-16.7235
-15.7821
-14.8227
-13.8651
-12.9258
-12.0181
-11.1521
-10.3348
-9.57106
-8.86297
-8.21066
-7.61246
-7.06547
-6.56612
-6.11057
-5.69498
-5.31564
-4.96895
-4.65148
-4.36003
-4.09164
-3.8438
-3.61446
-3.40207
-3.2055
-3.02388
-2.85656
-2.70294
-2.5625
-2.43469
-2.319
-2.21487
-2.12169
-2.03876
-1.96533
-1.90059
-1.84374
-1.79402
-1.75071
-1.71315
-1.68072
-1.65288
-1.6291
-1.60893
-1.59193
-1.57771
-1.56593
-1.55629
-1.5485
-1.54231
-1.53751
-1.5339
-1.53133
-1.52968
-1.52888
-21.9235
-21.815
-21.5953
-21.26
-20.8046
-20.2271
-19.5307
-18.726
-17.8311
-16.8698
-15.8684
-14.8523
-13.8437
-12.8606
-11.9168
-11.0225
-10.1846
-9.40726
-8.69209
-8.03823
-7.44286
-6.90187
-6.41064
-5.96452
-5.55909
-5.19017
-4.85387
-4.54645
-4.2644
-4.00453
-3.76414
-3.54114
-3.33406
-3.14195
-2.96416
-2.80019
-2.6496
-2.51197
-2.38686
-2.27382
-2.17236
-2.08191
-2.00178
-1.93117
-1.86922
-1.81509
-1.76796
-1.72709
-1.69181
-1.66152
-1.63565
-1.6137
-1.5952
-1.57971
-1.56687
-1.55632
-1.54778
-1.54095
-1.53561
-1.53152
-1.52849
-1.52636
-1.525
-1.52435
-22.3471
-22.2388
-22.0181
-21.6775
-21.209
-20.6068
-19.8719
-19.015
-18.0571
-17.0275
-15.9576
-14.8774
-13.812
-12.7808
-11.7981
-10.8737
-10.0142
-9.22318
-8.5016
-7.8475
-7.25662
-6.7234
-6.242
-5.80686
-5.41296
-5.05576
-4.73103
-4.43476
-4.16311
-3.9126
-3.68025
-3.46395
-3.26238
-3.07483
-2.90091
-2.74035
-2.59285
-2.45811
-2.33577
-2.22548
-2.12683
-2.0393
-1.96219
-1.89466
-1.83576
-1.78457
-1.74024
-1.702
-1.66918
-1.64117
-1.61742
-1.59742
-1.58071
-1.56684
-1.55546
-1.54622
-1.53885
-1.53306
-1.52862
-1.52529
-1.52289
-1.52123
-1.52019
-1.5197
-22.7961
-22.6897
-22.4708
-22.1285
-21.6497
-21.0236
-20.2475
-19.332
-18.3023
-17.1945
-16.0471
-14.8955
-13.7679
-12.685
-11.661
-10.7052
-9.82354
-9.01912
-8.29217
-7.63955
-7.05521
-6.53179
-6.06201
-5.6394
-5.25837
-4.91407
-4.60203
-4.31797
-4.05769
-3.8173
-3.59352
-3.38416
-3.18814
-3.00511
-2.83501
-2.67782
-2.53341
-2.40157
-2.28203
-2.17454
-2.07878
-1.99431
-1.92044
-1.85623
-1.80062
-1.7526
-1.71126
-1.67581
-1.64558
-1.61998
-1.59845
-1.58051
-1.56567
-1.55351
-1.54366
-1.53579
-1.52964
-1.52494
-1.52146
-1.51894
-1.5172
-1.51605
-1.51534
-1.51504
-23.2648
-23.1625
-22.9494
-22.6103
-22.1255
-21.4774
-20.6581
-19.6773
-18.5657
-17.3688
-16.1344
-14.9039
-13.7092
-12.5717
-11.5047
-10.5167
-9.61274
-8.79538
-8.06444
-7.41545
-6.84009
-6.3287
-5.87243
-5.46387
-5.09693
-4.76662
-4.46832
-4.19747
-3.94951
-3.72001
-3.50522
-3.3029
-3.11233
-2.93365
-2.76721
-2.61329
-2.47192
-2.34293
-2.22617
-2.12147
-2.02864
-1.94736
-1.87694
-1.81629
-1.7642
-1.71954
-1.68134
-1.6488
-1.62128
-1.59818
-1.57897
-1.56316
-1.55028
-1.53988
-1.53161
-1.52516
-1.52028
-1.51671
-1.51422
-1.51257
-1.51152
-1.51091
-1.51056
-1.51044
-23.7477
-23.6521
-23.4498
-23.1202
-22.6356
-21.9693
-21.1053
-20.0517
-18.8464
-17.5482
-16.2165
-14.9
-13.6339
-12.4396
-11.3286
-10.3081
-9.3819
-8.55223
-7.81898
-7.17628
-6.61275
-6.11584
-5.675
-5.28191
-4.93015
-4.61479
-4.33116
-4.07448
-3.8398
-3.62197
-3.41655
-3.22119
-3.03579
-2.86115
-2.69812
-2.54733
-2.4089
-2.28271
-2.16866
-2.06669
-1.97677
-1.89878
-1.83201
-1.77518
-1.72684
-1.68572
-1.6508
-1.62127
-1.59652
-1.57599
-1.55917
-1.54557
-1.5347
-1.52611
-1.51945
-1.51444
-1.51086
-1.50846
-1.507
-1.50624
-1.50592
-1.50588
-1.50589
-1.50597
-24.2391
-24.1534
-23.9678
-23.6556
-23.1796
-22.5006
-21.5913
-20.4565
-19.1435
-17.7302
-16.2905
-14.8808
-13.5398
-12.2875
-11.1323
-10.0795
-9.13135
-8.28995
-7.5563
-6.92308
-6.37474
-5.89492
-5.47142
-5.09512
-4.7594
-4.45976
-4.19165
-3.95004
-3.72965
-3.52436
-3.32862
-3.13996
-2.95926
-2.78822
-2.62826
-2.48041
-2.34485
-2.22136
-2.10992
-2.01057
-1.92348
-1.84884
-1.78597
-1.73324
-1.68886
-1.65144
-1.6199
-1.59345
-1.57152
-1.55361
-1.53922
-1.52787
-1.51907
-1.51233
-1.5073
-1.50373
-1.50146
-1.50025
-1.49986
-1.50002
-1.50047
-1.50102
-1.5014
-1.5017
-24.7334
-24.661
-24.4989
-24.2139
-23.7571
-23.0735
-22.1197
-20.8937
-19.456
-17.9117
-16.3528
-14.8431
-13.4248
-12.1146
-10.9157
-9.83129
-8.86162
-8.0087
-7.27673
-6.65697
-6.12776
-5.66773
-5.26338
-4.905
-4.5859
-4.30259
-4.05073
-3.82503
-3.62004
-3.42829
-3.2425
-3.06002
-2.88333
-2.71534
-2.55802
-2.41294
-2.28018
-2.15927
-2.05033
-1.95343
-1.86899
-1.79775
-1.73906
-1.69075
-1.65057
-1.61698
-1.58891
-1.56554
-1.54646
-1.5312
-1.51927
-1.51022
-1.50352
-1.49865
-1.49523
-1.4931
-1.49215
-1.49215
-1.49285
-1.49397
-1.49521
-1.49638
-1.49715
-1.49766
-25.225
-25.1696
-25.0388
-24.7922
-24.368
-23.6911
-22.6952
-21.3665
-19.7824
-18.0891
-16.3999
-14.7835
-13.287
-11.9206
-10.679
-9.5643
-8.57351
-7.70853
-6.98043
-6.37909
-5.87366
-5.43605
-5.05252
-4.71302
-4.41072
-4.14414
-3.9092
-3.70013
-3.51177
-3.33486
-3.15926
-2.98205
-2.80846
-2.64288
-2.48768
-2.34522
-2.21526
-2.09679
-1.99021
-1.89555
-1.81345
-1.74564
-1.6915
-1.648
-1.61222
-1.58259
-1.55803
-1.53774
-1.52149
-1.50889
-1.49942
-1.4927
-1.48817
-1.48517
-1.48334
-1.48262
-1.48298
-1.4842
-1.48602
-1.48814
-1.49019
-1.492
-1.49316
-1.4939
-25.7083
-25.6739
-25.5825
-25.3872
-25.0118
-24.3569
-23.324
-21.8787
-20.1204
-18.2579
-16.4277
-14.6983
-13.1245
-11.7057
-10.4226
-9.2797
-8.26828
-7.38917
-6.66716
-6.09068
-5.61461
-5.20168
-4.84045
-4.5206
-4.23474
-3.98513
-3.76773
-3.57579
-3.40552
-3.24516
-3.08002
-2.90661
-2.73496
-2.57112
-2.41741
-2.2775
-2.15046
-2.03423
-1.9299
-1.83722
-1.75697
-1.69258
-1.6435
-1.60529
-1.57408
-1.54849
-1.52747
-1.51018
-1.49674
-1.48679
-1.47978
-1.47542
-1.4731
-1.47198
-1.47169
-1.47233
-1.47399
-1.47645
-1.4794
-1.48254
-1.48544
-1.48792
-1.48947
-1.49043
-26.178
-26.1686
-26.125
-25.9951
-25.6879
-25.0749
-24.0142
-22.436
-20.4663
-18.4124
-16.4327
-14.5833
-12.9357
-11.4707
-10.1472
-8.97912
-7.94777
-7.04988
-6.3362
-5.79316
-5.35319
-4.96636
-4.62869
-4.32923
-4.05862
-3.82611
-3.62693
-3.45219
-3.30177
-3.16039
-3.00599
-2.83409
-2.66299
-2.5003
-2.34722
-2.20996
-2.08614
-1.97182
-1.86969
-1.77874
-1.69952
-1.63852
-1.59523
-1.56291
-1.53637
-1.51488
-1.49742
-1.48299
-1.4723
-1.46501
-1.46041
-1.45844
-1.45841
-1.45918
-1.46033
-1.46225
-1.46519
-1.4689
-1.47301
-1.47722
-1.481
-1.48417
-1.4861
-1.48728
-26.6293
-26.6483
-26.6611
-26.6115
-26.3949
-25.8499
-24.7761
-23.0459
-20.8139
-18.5457
-16.4119
-14.4336
-12.7191
-11.2181
-9.8532
-8.66462
-7.61486
-6.6891
-5.98606
-5.48826
-5.09263
-4.73159
-4.41861
-4.14048
-3.88267
-3.66745
-3.48744
-3.32921
-3.20075
-3.08186
-2.93862
-2.76457
-2.59251
-2.43067
-2.27698
-2.1427
-2.02274
-1.90973
-1.80989
-1.72049
-1.64097
-1.58333
-1.54689
-1.52124
-1.49929
-1.48194
-1.46807
-1.45623
-1.44823
-1.44364
-1.44135
-1.44181
-1.44419
-1.44686
-1.44929
-1.4524
-1.45661
-1.46159
-1.46688
-1.47218
-1.47688
-1.48075
-1.48308
-1.48445
-27.0575
-27.1083
-27.1853
-27.2311
-27.1304
-26.6863
-25.6229
-23.7194
-21.1531
-18.6491
-16.3639
-14.243
-12.4735
-10.9518
-9.54023
-8.33875
-7.27399
-6.30396
-5.61426
-5.17818
-4.83711
-4.49839
-4.21139
-3.95626
-3.70673
-3.50937
-3.3501
-3.20624
-3.10243
-3.01112
-2.8797
-2.69774
-2.52326
-2.36259
-2.20632
-2.0758
-1.96083
-1.84796
-1.75081
-1.66298
-1.58104
-1.52673
-1.4987
-1.48071
-1.46299
-1.44981
-1.43962
-1.42994
-1.4246
-1.42278
-1.42262
-1.42554
-1.43052
-1.4351
-1.43859
-1.44277
-1.44825
-1.45453
-1.461
-1.46743
-1.47311
-1.4777
-1.4804
-1.48194
-27.4587
-27.5438
-27.6919
-27.848
-27.8906
-27.5882
-26.571
-24.4724
-21.4676
-18.7121
-16.2909
-14.0029
-12.1978
-10.6787
-9.20633
-8.00448
-6.9322
-5.88952
-5.21694
-4.86588
-4.59222
-4.26684
-4.00795
-3.7791
-3.5299
-3.3519
-3.21617
-3.08207
-3.00636
-2.95004
-2.83163
-2.63262
-2.45478
-2.29674
-2.13451
-2.00924
-1.90126
-1.78631
-1.69276
-1.607
-1.51916
-1.46829
-1.45092
-1.44189
-1.4275
-1.41858
-1.41231
-1.40407
-1.4014
-1.40253
-1.40418
-1.40964
-1.41748
-1.42403
-1.42822
-1.43333
-1.44011
-1.44772
-1.45539
-1.46297
-1.46971
-1.47503
-1.47808
-1.47976
-27.8297
-27.9508
-28.1753
-28.4551
-28.6698
-28.5585
-27.6404
-25.3287
-21.7315
-18.7222
-16.2006
-13.7008
-11.8909
-10.4103
-8.84634
-7.66519
-6.60057
-5.43756
-4.78861
-4.55545
-4.36564
-4.03543
-3.80886
-3.61265
-3.3501
-3.19494
-3.08779
-2.95456
-2.91158
-2.90094
-2.79775
-2.5672
-2.38631
-2.23437
-2.06029
-1.94299
-1.8453
-1.72413
-1.63606
-1.55373
-1.45443
-1.40736
-1.40396
-1.40555
-1.39273
-1.38831
-1.38647
-1.37849
-1.37863
-1.38308
-1.38595
-1.39407
-1.4052
-1.41378
-1.41814
-1.42405
-1.43219
-1.44118
-1.45004
-1.45879
-1.46671
-1.47274
-1.47611
-1.47788
-28.1679
-28.3257
-28.6302
-29.0448
-29.4602
-29.5978
-28.8549
-26.324
-21.9038
-18.6649
-16.1108
-13.3172
-11.5521
-10.1646
-8.44957
-7.32455
-6.29656
-4.93476
-4.32179
-4.25246
-4.16806
-3.79996
-3.61428
-3.46249
-3.16345
-3.03822
-2.96852
-2.82027
-2.81653
-2.86668
-2.7828
-2.49789
-2.31687
-2.1777
-1.98154
-1.87693
-1.79497
-1.66014
-1.58103
-1.50509
-1.38534
-1.34308
-1.35832
-1.37276
-1.35831
-1.359
-1.36258
-1.3529
-1.35626
-1.36467
-1.3678
-1.37876
-1.39377
-1.40456
-1.40828
-1.41486
-1.42449
-1.43492
-1.44494
-1.45486
-1.46412
-1.47085
-1.47449
-1.4763
-28.4715
-28.6657
-29.0514
-29.6088
-30.2514
-30.7028
-30.2413
-27.5127
-21.9212
-18.5241
-16.0542
-12.8214
-11.1804
-9.97018
-7.99624
-6.98646
-6.04723
-4.36
-3.807
-3.96442
-4.01453
-3.55199
-3.42394
-3.33723
-2.96321
-2.88135
-2.86422
-2.67374
-2.71889
-2.85075
-2.79369
-2.41865
-2.24522
-2.1306
-1.89476
-1.8109
-1.75343
-1.59197
-1.528
-1.46401
-1.30954
-1.27439
-1.31475
-1.34502
-1.3235
-1.33061
-1.34138
-1.32679
-1.33422
-1.34772
-1.34943
-1.3636
-1.38336
-1.39662
-1.39847
-1.40567
-1.41701
-1.42896
-1.4401
-1.45114
-1.46201
-1.46937
-1.47321
-1.47499
-28.7394
-28.9688
-29.4345
-30.1384
-31.0304
-31.8651
-31.8282
-28.9777
-21.6871
-18.2828
-16.0866
-12.1649
-10.7753
-9.87122
-7.45238
-6.65492
-5.89401
-3.68033
-3.23299
-3.70111
-3.92633
-3.27667
-3.23716
-3.25025
-2.73829
-2.72387
-2.78423
-2.50665
-2.61559
-2.85721
-2.84053
-2.31986
-2.16993
-2.09937
-1.79439
-1.74471
-1.72556
-1.51563
-1.47727
-1.43506
-1.22337
-1.20003
-1.27421
-1.32441
-1.28694
-1.30303
-1.324
-1.29929
-1.31245
-1.33285
-1.33043
-1.34847
-1.37413
-1.39034
-1.38848
-1.39641
-1.40979
-1.42332
-1.43549
-1.44756
-1.46041
-1.46832
-1.47223
-1.47392
-28.9715
-29.2336
-29.7759
-30.6253
-31.7818
-33.0691
-33.6421
-30.844
-21.057
-17.9249
-16.2973
-11.2718
-10.3366
-9.93468
-6.76268
-6.33392
-5.89917
-2.8453
-2.58772
-3.47463
-3.93352
-2.94965
-3.05301
-3.22193
-2.47117
-2.56539
-2.74301
-2.30639
-2.50288
-2.89055
-2.93814
-2.18666
-2.0896
-2.09397
-1.67169
-1.67819
-1.71885
-1.4247
-1.42916
-1.42508
-1.12123
-1.11865
-1.23793
-1.31388
-1.24638
-1.27614
-1.31215
-1.26902
-1.29086
-1.32101
-1.31011
-1.3332
-1.36629
-1.38622
-1.37789
-1.38696
-1.40287
-1.41806
-1.43111
-1.44402
-1.45943
-1.4677
-1.47156
-1.47307
-29.1682
-29.4599
-30.0727
-31.0615
-32.4881
-34.2901
-35.7017
-33.2983
-19.8177
-17.4376
-16.8231
-10.0261
-9.86564
-10.2601
-5.84069
-6.02743
-6.15446
-1.77891
-1.86042
-3.29904
-4.07854
-2.533
-2.8706
-3.2828
-2.13489
-2.40578
-2.76229
-2.05428
-2.37675
-2.95515
-3.10802
-1.99672
-2.00301
-2.12959
-1.51333
-1.61128
-1.74446
-1.30919
-1.38397
-1.4442
-0.994692
-1.02911
-1.20739
-1.31755
-1.19829
-1.24983
-1.30839
-1.23387
-1.26941
-1.31361
-1.28743
-1.31765
-1.36005
-1.38499
-1.3661
-1.37727
-1.39633
-1.41321
-1.42696
-1.44039
-1.45919
-1.46752
-1.47114
-1.47242
-29.3304
-29.648
-30.3233
-31.4401
-33.1308
-35.493
-38.0082
-36.6156
-17.661
-16.8159
-17.8662
-8.25383
-9.36613
-10.9923
-4.55595
-5.73951
-6.79248
-0.368748
-1.04519
-3.18896
-4.42087
-1.96987
-2.68958
-3.47753
-1.68917
-2.24558
-2.87385
-1.72297
-2.23361
-3.05442
-3.38124
-1.7173
-1.90959
-2.22863
-1.29938
-1.54419
-1.81869
-1.15411
-1.34204
-1.5071
-0.831307
-0.930792
-1.18416
-1.34117
-1.13739
-1.22405
-1.31647
-1.19062
-1.24815
-1.31271
-1.2608
-1.30172
-1.35563
-1.38767
-1.35221
-1.36732
-1.39028
-1.40886
-1.42304
-1.43645
-1.4599
-1.46779
-1.47094
-1.47194
-29.4599
-29.799
-30.5274
-31.7561
-33.6916
-36.6322
-40.5303
-41.1948
-14.1485
-16.068
-19.7167
-5.70019
-8.84673
-12.3378
-2.71744
-5.47462
-8.00112
1.5485
-0.146926
-3.15703
-5.04332
-1.17764
-2.51091
-3.86999
-1.07523
-2.08652
-3.12295
-1.27308
-2.07171
-3.18924
-3.80203
-1.30153
-1.81
-2.42324
-1.00081
-1.47762
-1.96486
-0.937591
-1.30379
-1.63459
-0.612981
-0.824347
-1.16971
-1.39269
-1.05593
-1.19896
-1.34169
-1.13461
-1.22727
-1.3212
-1.22793
-1.28546
-1.35321
-1.39567
-1.33491
-1.35719
-1.3849
-1.40507
-1.41939
-1.43192
-1.46185
-1.46849
-1.47094
-1.47162
-29.5587
-29.9146
-30.6855
-32.0061
-34.154
-37.6524
-43.1834
-47.6041
-8.66777
-15.2243
-22.7794
-2.00106
-8.32413
-14.5846
-0.0529134
-5.23818
-10.0414
4.20574
0.809902
-3.2094
-6.0601
-0.0393916
-2.33805
-4.54955
-0.209432
-1.93246
-3.57254
-0.648858
-1.89326
-3.35558
-4.43259
-0.683579
-1.70696
-2.75844
-0.576214
-1.41316
-2.2156
-0.62853
-1.26983
-1.8556
-0.313907
-0.712608
-1.16495
-1.48301
-0.942946
-1.17501
-1.39149
-1.05915
-1.20725
-1.34311
-1.18551
-1.26922
-1.35282
-1.41095
-1.31236
-1.34717
-1.38038
-1.40196
-1.4161
-1.42641
-1.46548
-1.46958
-1.47111
-1.47145
-29.629
-29.9973
-30.7995
-32.1895
-34.5053
-38.4922
-45.8002
-56.6386
-0.378055
-14.3483
-27.6063
3.35219
-7.82777
-18.1263
3.81599
-5.03768
-13.269
7.92903
1.76865
-3.33869
-7.62713
1.60637
-2.17842
-5.63842
1.02468
-1.79054
-4.30829
0.227343
-1.70762
-3.54106
-5.35906
0.227074
-1.60638
-3.29567
0.032055
-1.3538
-2.61553
-0.183748
-1.24112
-2.20957
0.102048
-0.602006
-1.16957
-1.627
-0.783269
-1.15321
-1.476
-0.954903
-1.18901
-1.38383
-1.1289
-1.25378
-1.35431
-1.4362
-1.282
-1.33781
-1.37697
-1.39962
-1.41333
-1.41938
-1.4714
-1.47098
-1.47145
-1.47145
-29.6734
-30.0497
-30.8721
-32.3077
-34.7382
-39.0916
-48.0927
-69.3909
11.8544
-13.5515
-34.9322
11.0541
-7.40618
-23.4895
9.40312
-4.88406
-18.1596
13.1664
2.62348
-3.51388
-9.95476
3.97799
-2.04545
-7.30026
2.78569
-1.67287
-5.44429
1.4618
-1.53577
-3.72015
-6.69897
1.55264
-1.51883
-4.117
0.902557
-1.30461
-3.22446
0.455346
-1.21919
-2.74924
0.684541
-0.504436
-1.18101
-1.8446
-0.556343
-1.13537
-1.60871
-0.809101
-1.17413
-1.45055
-1.05168
-1.24068
-1.35712
-1.47503
-1.24032
-1.33008
-1.37497
-1.3982
-1.41137
-1.41012
-1.48048
-1.47259
-1.472
-1.47169
-29.6945
-30.0746
-30.9067
-32.3646
-34.8523
-39.4035
-49.6033
-87.335
29.5326
-13.0118
-45.7155
22.0325
-7.13511
-31.3646
17.3912
-4.7938
-25.3376
20.5221
3.19717
-3.66631
-13.3232
7.36476
-1.96108
-9.74977
5.28511
-1.59861
-7.12945
3.19751
-1.41626
-3.84785
-8.61007
3.4551
-1.46139
-5.32963
2.14012
-1.2736
-4.12084
1.36663
-1.20636
-3.54375
1.50064
-0.439559
-1.19295
-2.16224
-0.234761
-1.12427
-1.80711
-0.604506
-1.16493
-1.55233
-0.945028
-1.23229
-1.35989
-1.53207
-1.18242
-1.32532
-1.3744
-1.39756
-1.41041
-1.39743
-1.49363
-1.47391
-1.47259
-1.47195
)
;

boundaryField
{
    left
    {
        type            calculated;
        value           nonuniform List<scalar> 
32
(
-20.1561
-20.2344
-20.3833
-20.5943
-20.8602
-21.1743
-21.5307
-21.9235
-22.3471
-22.7961
-23.2648
-23.7477
-24.2391
-24.7334
-25.225
-25.7083
-26.178
-26.6293
-27.0575
-27.4587
-27.8297
-28.1679
-28.4715
-28.7394
-28.9715
-29.1682
-29.3304
-29.4599
-29.5587
-29.629
-29.6734
-29.6945
)
;
    }
    right
    {
        type            calculated;
        value           nonuniform List<scalar> 
32
(
-1.54664
-1.54554
-1.54348
-1.54064
-1.53716
-1.53319
-1.52888
-1.52435
-1.5197
-1.51504
-1.51044
-1.50597
-1.5017
-1.49766
-1.4939
-1.49043
-1.48728
-1.48445
-1.48194
-1.47976
-1.47788
-1.4763
-1.47499
-1.47392
-1.47307
-1.47242
-1.47194
-1.47162
-1.47145
-1.47145
-1.47169
-1.47195
)
;
    }
    interface
    {
        type            calculated;
        value           nonuniform List<scalar> 
64
(
-29.6996
-30.0805
-30.915
-32.3783
-34.8801
-39.4829
-50.0937
-97.8158
39.9467
-12.8333
-52.1064
28.4731
-7.04867
-36.0277
22.0824
-4.76699
-29.5867
24.816
3.38634
-3.72539
-15.3076
9.35301
-1.93441
-11.2018
6.74953
-1.57525
-8.13032
4.21112
-1.37571
-3.89178
-9.73094
4.57357
-1.44279
-6.0489
2.86559
-1.26385
-4.65197
1.90138
-1.20256
-4.01448
1.97669
-0.418314
-1.19795
-2.34981
-0.0463985
-1.12082
-1.92518
-0.485035
-1.16208
-1.61325
-0.883054
-1.22961
-1.36102
-1.56577
-1.14869
-1.32385
-1.37445
-1.39738
-1.41018
-1.39003
-1.50133
-1.4744
-1.47285
-1.47204
)
;
    }
    bottom
    {
        type            calculated;
        value           nonuniform List<scalar> 
64
(
-20.1357
-20.0391
-19.8469
-19.5615
-19.1864
-18.7267
-18.1891
-17.5821
-16.9157
-16.2008
-15.4495
-14.6738
-13.8856
-13.096
-12.3151
-11.5516
-10.8125
-10.1037
-9.42927
-8.79197
-8.19335
-7.63387
-7.11313
-6.63004
-6.18302
-5.77018
-5.38937
-5.03841
-4.71509
-4.41726
-4.14294
-3.89027
-3.65761
-3.44347
-3.24656
-3.06572
-2.89992
-2.74825
-2.60984
-2.48391
-2.3697
-2.26647
-2.17349
-2.09007
-2.01549
-1.94908
-1.89017
-1.83812
-1.79231
-1.75217
-1.71715
-1.68674
-1.66047
-1.63791
-1.61866
-1.60236
-1.58869
-1.57736
-1.56812
-1.56075
-1.55508
-1.55095
-1.54825
-1.54692
)
;
    }
    defaultFaces
    {
        type            empty;
    }
}


// ************************************************************************* //
