/*--------------------------------*- C++ -*----------------------------------*\
| =========                 |                                                 |
| \\      /  F ield         | OpenFOAM: The Open Source CFD Toolbox           |
|  \\    /   O peration     | Version:  5.x                                   |
|   \\  /    A nd           | Web:      www.OpenFOAM.org                      |
|    \\/     M anipulation  |                                                 |
\*---------------------------------------------------------------------------*/
FoamFile
{
    version     2.0;
    format      ascii;
    class       volScalarField;
    location    "9.8";
    object      gradTx;
}
// * * * * * * * * * * * * * * * * * * * * * * * * * * * * * * * * * * * * * //

dimensions      [0 -1 0 1 0 0 0];

internalField   nonuniform List<scalar> 
2048
(
0.0222093
0.0663809
0.109789
0.151857
0.191927
0.229269
0.263124
0.292762
0.317561
0.33707
0.351058
0.359531
0.362721
0.361047
0.35507
0.34544
0.332854
0.318007
0.301565
0.284133
0.266244
0.24834
0.230779
0.213828
0.197679
0.182457
0.16823
0.155016
0.1428
0.131535
0.121153
0.111575
0.102718
0.0944989
0.0868446
0.0796909
0.0729857
0.0666885
0.0607696
0.0552081
0.0499902
0.0451074
0.0405536
0.0363239
0.0324123
0.0288111
0.0255103
0.0224977
0.0197593
0.0172796
0.0150421
0.0130298
0.0112256
0.00961224
0.00817259
0.00688983
0.00574737
0.00472882
0.00381798
0.0029986
0.00225436
0.00156867
0.000924733
0.000305544
0.0658606
0.196871
0.325676
0.450584
0.569642
0.680665
0.781352
0.869487
0.943171
1.00103
1.04238
1.06724
1.07632
1.07091
1.0527
1.02366
0.985875
0.941434
0.892323
0.840352
0.787098
0.733878
0.681738
0.631468
0.583626
0.53857
0.496493
0.457445
0.42137
0.388122
0.357496
0.329251
0.303133
0.278897
0.256322
0.235217
0.215428
0.196837
0.179356
0.162926
0.147508
0.133078
0.11962
0.10712
0.095563
0.0849251
0.0751772
0.0662829
0.0582003
0.0508831
0.0442824
0.0383479
0.0330284
0.0282729
0.0240309
0.0202524
0.0168885
0.0138908
0.0112115
0.00880268
0.00661617
0.00460288
0.00271293
0.000896257
0.108141
0.323322
0.535068
0.74067
0.936917
1.12014
1.28641
1.43192
1.55339
1.64845
1.71594
1.75593
1.76968
1.75941
1.72801
1.67883
1.61537
1.54113
1.45941
1.37322
1.28515
1.19736
1.11156
1.02901
0.950586
0.876858
0.808108
0.7444
0.685618
0.631504
0.581702
0.535798
0.493361
0.453977
0.417276
0.382946
0.350736
0.320454
0.291962
0.265169
0.240014
0.216467
0.194504
0.17411
0.155258
0.137913
0.122028
0.107541
0.0943823
0.0824761
0.0717412
0.0620944
0.053452
0.0457301
0.0388458
0.0327178
0.027266
0.0224118
0.0180775
0.0141852
0.0106564
0.00741107
0.00436657
0.00144202
0.149332
0.44662
0.739554
1.02454
1.29714
1.55211
1.78374
1.98639
2.15518
2.28663
2.37906
2.43266
2.44934
2.4324
2.3861
2.31523
2.2248
2.11977
2.00479
1.88407
1.76122
1.63921
1.52034
1.4063
1.29825
1.19691
1.10261
1.0154
0.935082
0.861261
0.793408
0.730915
0.673158
0.619545
0.569553
0.522751
0.478794
0.437428
0.398472
0.361807
0.327366
0.295114
0.265032
0.237104
0.211301
0.187576
0.165863
0.146077
0.128118
0.111879
0.097248
0.0841094
0.0723471
0.0618457
0.052491
0.0441713
0.0367772
0.0302015
0.0243382
0.0190813
0.014324
0.00995652
0.00586354
0.00193539
0.189592
0.567279
0.940125
1.30383
1.65275
1.97996
2.27766
2.53801
2.75426
2.92159
3.03774
3.10313
3.12054
3.09454
3.03094
2.93615
2.81681
2.67939
2.52995
2.37393
2.21595
2.05975
1.90818
1.76331
1.62648
1.4985
1.37975
1.27019
1.16953
1.0772
0.992466
0.914506
0.842473
0.775582
0.713156
0.654642
0.599616
0.547765
0.498876
0.452816
0.409516
0.368951
0.331115
0.296001
0.263581
0.233798
0.206566
0.181774
0.159292
0.138981
0.120698
0.104293
0.0896203
0.0765329
0.0648864
0.0545399
0.0453561
0.0372011
0.0299425
0.0234481
0.0175844
0.012214
0.00718865
0.00237134
0.228958
0.685462
1.13721
1.57944
2.00538
2.40618
2.77156
3.09103
3.35544
3.55837
3.69697
3.77204
3.78748
3.74948
3.66561
3.54413
3.39339
3.22149
3.03596
2.8435
2.64976
2.45921
2.2752
2.10004
1.93522
1.78158
1.63944
1.5087
1.3889
1.27929
1.1789
1.08664
1.00141
0.922216
0.848217
0.778751
0.713319
0.651566
0.593255
0.538251
0.486495
0.437983
0.392737
0.350767
0.312052
0.276526
0.244081
0.214576
0.187849
0.163729
0.142037
0.122595
0.105223
0.0897464
0.0759897
0.0637842
0.0529664
0.0433773
0.0348608
0.0272602
0.0204171
0.0141683
0.00833242
0.00274667
0.26735
0.80099
1.33072
1.85163
2.35587
2.83248
3.26815
3.64899
3.96284
4.20132
4.36097
4.44323
4.45352
4.40003
4.29243
4.14099
3.95594
3.74709
3.5235
3.29321
3.06291
2.83776
2.62149
2.41658
2.22456
2.0462
1.88175
1.73099
1.59329
1.46768
1.35289
1.24753
1.15021
1.05969
0.974977
0.895302
0.820107
0.749009
0.681761
0.618234
0.558394
0.502273
0.449934
0.40142
0.356721
0.31576
0.278403
0.244477
0.213783
0.186113
0.161256
0.139003
0.119145
0.101474
0.0857891
0.0718922
0.0595956
0.0487177
0.0390807
0.0305062
0.0228123
0.0158117
0.00928998
0.00305963
0.304575
0.913357
1.52002
2.11997
2.70441
3.25994
3.76953
4.21494
4.58013
4.85429
5.03337
5.11987
5.12129
5.04829
4.91304
4.72801
4.50541
4.25682
3.99296
3.72327
3.45549
3.19545
2.94713
2.71305
2.49463
2.29252
2.10685
1.93724
1.7829
1.64259
1.51472
1.3975
1.28921
1.18835
1.09376
1.00459
0.920247
0.840332
0.764601
0.692941
0.625352
0.561926
0.502784
0.448017
0.397631
0.351537
0.309569
0.271511
0.237123
0.20616
0.178379
0.153539
0.131402
0.111732
0.0942971
0.0788736
0.0652505
0.0532259
0.0426036
0.0331855
0.0247684
0.0171429
0.0100601
0.00330954
0.340336
1.02175
1.70401
2.38344
3.05049
3.68903
4.27737
4.79163
5.21069
5.52074
5.71731
5.80454
5.79276
5.69574
5.52852
5.30597
5.04234
4.75103
4.44447
4.13367
3.82749
3.53231
3.25224
2.98963
2.74567
2.52081
2.31499
2.12772
1.95801
1.80436
1.66476
1.53697
1.41884
1.30861
1.20495
1.10697
1.01405
0.925814
0.842021
0.762582
0.687546
0.617079
0.551392
0.490642
0.434858
0.383929
0.337647
0.295743
0.257931
0.223927
0.193455
0.166246
0.142035
0.120555
0.101546
0.0847557
0.069953
0.0569186
0.0454411
0.0353062
0.0262907
0.0181651
0.0106443
0.00349658
0.374236
1.12505
1.88111
2.64038
3.39296
4.11965
4.79296
5.38159
5.85777
6.20394
6.41557
6.49932
6.46933
6.34328
6.13945
5.87527
5.56698
5.22978
4.87795
4.52425
4.17876
3.84833
3.53694
3.24658
2.97802
2.73141
2.50653
2.30276
2.11897
1.95336
1.80346
1.66642
1.53962
1.42096
1.309
1.20282
1.10186
1.00576
0.914298
0.827402
0.745176
0.66789
0.595881
0.529399
0.468496
0.41303
0.362729
0.317264
0.276293
0.239492
0.206555
0.177189
0.151101
0.127997
0.107582
0.0895793
0.0737365
0.0598219
0.047613
0.0368827
0.0273891
0.0188853
0.0110464
0.00362152
0.405792
1.22189
2.04928
2.88856
3.73004
4.55119
5.31731
5.98735
6.52461
6.90701
7.13057
7.20578
7.15183
6.99126
6.74599
6.43599
6.07937
5.69301
5.29318
4.89471
4.50911
4.14349
3.80142
3.48422
3.19208
2.92477
2.68189
2.46276
2.26617
2.09005
1.93134
1.78644
1.6521
1.52591
1.40635
1.29256
1.18405
1.08051
0.981728
0.887663
0.798464
0.714531
0.636385
0.564403
0.498658
0.438951
0.384931
0.336186
0.292314
0.252952
0.217765
0.186443
0.15867
0.134121
0.112466
0.0933954
0.0766434
0.0619693
0.0491445
0.0379338
0.028077
0.0193131
0.0112718
0.00368562
0.434452
1.31066
2.20608
3.12514
4.05924
4.98246
5.85122
6.61153
7.21467
7.63306
7.86448
7.92502
7.84055
7.63955
7.3479
6.98795
6.5794
6.14054
5.68977
5.24463
4.81825
4.41779
4.04591
3.703
3.3884
3.10141
2.84155
2.60815
2.40002
2.21487
2.04895
1.89765
1.75691
1.62404
1.49751
1.37658
1.26095
1.15037
1.04462
0.943647
0.847644
0.757179
0.673038
0.595771
0.525462
0.461819
0.404382
0.352637
0.306113
0.264413
0.227183
0.194096
0.164822
0.139001
0.116263
0.0962634
0.0787223
0.0633992
0.0500649
0.0384815
0.0283701
0.0194601
0.0113275
0.00369055
0.459615
1.3896
2.34872
3.34672
4.37741
5.41173
6.39532
7.25701
7.93169
8.38517
8.61915
8.65764
8.53518
8.28751
7.94461
7.5308
7.06695
6.57218
6.06729
5.57344
5.10586
4.67124
4.27076
3.90345
3.56759
3.26194
2.98604
2.73937
2.5209
2.32829
2.15691
2.00072
1.8547
1.71592
1.58294
1.4553
1.33295
1.21569
1.10329
0.995649
0.892964
0.796012
0.705965
0.623619
0.549036
0.481774
0.421226
0.366758
0.317821
0.273995
0.234911
0.200238
0.169639
0.142718
0.119051
0.0982484
0.0800262
0.0641532
0.0504056
0.0385495
0.0282858
0.019339
0.0112217
0.00363845
0.480659
1.45684
2.47413
3.54937
4.68064
5.83656
6.95008
7.92715
8.67989
9.16647
9.39608
9.40375
9.23485
8.93407
8.53527
8.06407
7.54191
6.9878
6.42517
5.88043
5.37158
4.90396
4.47639
4.08624
3.73039
3.40703
3.11595
2.85687
2.62918
2.43075
2.25584
2.09641
1.94618
1.80214
1.66313
1.52908
1.40035
1.27679
1.15805
1.04398
0.934686
0.831199
0.735278
0.64806
0.569514
0.498961
0.435618
0.378701
0.327576
0.28182
0.241058
0.204963
0.173208
0.145357
0.120908
0.0994197
0.0806107
0.0642746
0.0501992
0.0381624
0.0278421
0.0189638
0.0109637
0.003532
0.496974
1.51049
2.57906
3.72868
4.96422
6.25379
7.51587
8.62601
9.46421
9.98005
10.1964
10.1629
9.93802
9.57771
9.11882
8.58719
8.00436
7.38745
6.76277
6.16473
5.61501
5.11615
4.66336
4.25217
3.87768
3.53744
3.2319
2.96112
2.72517
2.52265
2.34645
2.18555
2.03205
1.8833
1.73854
1.59826
1.46347
1.33397
1.20921
1.08897
0.973084
0.862895
0.761063
0.669195
0.587032
0.513536
0.447724
0.388628
0.335521
0.288015
0.245733
0.208362
0.175613
0.147004
0.12192
0.0998499
0.0805324
0.063807
0.0494783
0.0373448
0.0270574
0.0183489
0.010564
0.00337458
0.507999
1.54876
2.66023
3.87983
5.22262
6.65929
8.09283
9.35862
10.2904
10.8289
11.0209
10.9341
10.6425
10.2165
9.69404
9.09955
8.45465
7.77146
7.07932
6.42516
5.83577
5.30816
4.83231
4.40217
4.01043
3.65394
3.33456
3.05257
2.80906
2.60431
2.42949
2.26903
2.11305
1.95997
1.80958
1.66312
1.52259
1.38752
1.25708
1.13096
1.00846
0.891235
0.783366
0.687116
0.601739
0.525662
0.457717
0.396707
0.3418
0.292705
0.249046
0.210524
0.176937
0.147749
0.122177
0.0996131
0.079847
0.062793
0.048275
0.0361203
0.0259497
0.0175093
0.0100344
0.00317048
0.513257
1.57002
2.71447
3.99775
5.44939
7.04775
8.68081
10.1314
11.1656
11.7155
11.8696
11.7158
11.3452
10.8482
10.2597
9.60041
8.89353
8.14061
7.3738
6.66019
6.03352
5.48059
4.98398
4.5373
4.12976
3.75732
3.42465
3.1317
2.8809
2.67592
2.50579
2.34789
2.18989
2.0327
1.87668
1.72387
1.57794
1.43775
1.30191
1.17034
1.04115
0.916318
0.802183
0.701907
0.613796
0.535502
0.465778
0.403115
0.346553
0.296018
0.251108
0.211529
0.177253
0.147684
0.121773
0.0987842
0.0786083
0.0612737
0.0466204
0.0345111
0.0245365
0.0164605
0.00938765
0.00292504
0.512392
1.57299
2.73888
4.07723
5.63722
7.41237
9.27916
10.9528
12.0983
12.6416
12.742
12.5062
12.0421
11.4705
10.8146
10.0888
9.32232
8.49636
7.64489
6.86776
6.20804
5.63434
5.11915
4.65879
4.23692
3.84832
3.50295
3.19903
2.94053
2.73752
2.57633
2.42333
2.26321
2.10202
1.94021
1.7806
1.62974
1.48491
1.34395
1.20752
1.07156
0.938195
0.81744
0.71365
0.623389
0.543221
0.472097
0.408038
0.349912
0.298077
0.252027
0.211446
0.176625
0.146904
0.120811
0.0974375
0.076866
0.0592875
0.0445447
0.0325376
0.022834
0.0152185
0.00863827
0.00264477
0.505199
1.55675
2.73103
4.11319
5.7779
7.7445
9.88625
11.8337
13.099
13.6073
13.6371
13.3034
12.728
12.0807
11.3578
10.5631
9.74311
8.84117
7.89069
7.04501
6.35938
5.77078
5.23849
4.76801
4.33338
3.92752
3.57033
3.25521
2.98753
2.78886
2.64231
2.49675
2.33352
2.16843
2.00057
1.83328
1.67819
1.52932
1.38334
1.243
1.10017
0.956841
0.828964
0.722439
0.630742
0.548969
0.476869
0.411674
0.351994
0.299002
0.25192
0.210332
0.175102
0.145507
0.1194
0.0956443
0.074664
0.0568705
0.0420774
0.0302174
0.0208568
0.0138005
0.00780225
0.0023374
0.491646
1.52088
2.68913
4.10087
5.86249
8.03316
10.4989
12.7889
14.1811
14.6099
14.5532
14.1057
13.3957
12.6768
11.8892
11.0209
10.159
9.17894
8.1084
7.18805
6.48805
5.89194
5.34239
4.86653
4.42086
3.99521
3.6278
3.30109
3.02106
2.82934
2.70525
2.56988
2.40107
2.23239
2.05819
1.88163
1.72349
1.57132
1.42007
1.27735
1.12761
0.972125
0.836455
0.728396
0.636137
0.552869
0.480297
0.41424
0.352884
0.298913
0.25091
0.20822
0.172715
0.143598
0.117665
0.0934709
0.0720383
0.0540554
0.0392484
0.0275653
0.0186169
0.0122253
0.00689752
0.00201184
0.471886
1.46552
2.61222
4.03622
5.8815
8.2646
11.1113
13.8381
15.3616
15.642
15.4882
14.9126
14.0356
13.2573
12.4095
11.4577
10.5747
9.5156
8.29388
7.29152
6.59538
6.00077
5.43061
4.95617
4.5015
4.05113
3.67661
3.33791
3.03977
2.85783
2.76714
2.64488
2.46565
2.29439
2.11365
1.9251
1.7659
1.61134
1.4539
1.31127
1.15471
0.983753
0.839445
0.731708
0.639942
0.554982
0.482598
0.415982
0.352625
0.29793
0.249142
0.205121
0.169465
0.141296
0.115745
0.0909741
0.0690145
0.0508731
0.0360892
0.0245923
0.0161227
0.0105141
0.00594428
0.00167799
0.446259
1.39137
2.50031
3.91618
5.82529
8.42184
11.7135
15.0079
16.6624
16.689
16.4407
15.7259
14.6338
13.8219
12.9215
11.8659
10.9965
9.86003
8.44091
7.34813
6.68399
6.10146
5.50173
5.03916
4.57801
4.09412
3.71834
3.3675
3.0416
2.87245
2.83069
2.72447
2.5263
2.355
2.16777
1.9626
1.80583
1.65002
1.48421
1.34563
1.18262
0.991195
0.83725
0.73267
0.642645
0.555264
0.484008
0.417197
0.351186
0.296178
0.246791
0.201009
0.165322
0.138736
0.113804
0.0881956
0.0656055
0.047353
0.0326347
0.0213047
0.0133778
0.00869184
0.00496526
0.00134647
0.415273
1.29972
2.35445
3.73907
5.68458
8.48434
12.2889
16.3338
18.112
17.725
17.4106
16.5514
15.1704
14.373
13.4307
12.2327
11.4336
10.2251
8.54025
7.34806
6.75839
6.19993
5.5524
5.11835
4.65405
4.12156
3.75509
3.39265
3.02353
2.87033
2.89962
2.81221
2.5809
2.41497
2.2218
1.99235
1.84389
1.68827
1.50975
1.38159
1.2129
0.99358
0.828911
0.731753
0.644901
0.553494
0.484805
0.418257
0.348422
0.293797
0.244086
0.195807
0.16021
0.136082
0.112038
0.0851532
0.0618098
0.043525
0.0289261
0.0177029
0.0103789
0.00678859
0.00398604
0.00102821
0.379585
1.19235
2.17679
3.50488
5.45121
8.42795
12.8114
17.8639
19.7486
18.7074
18.4009
17.4011
15.6161
14.9168
13.9472
12.5374
11.8988
10.6294
8.57829
7.27834
6.82594
6.30438
5.57617
5.19757
4.73464
4.12861
3.78976
3.41748
2.98128
2.84721
2.97902
2.91276
2.62556
2.47548
2.27765
2.01143
1.88112
1.7275
1.52836
1.42067
1.24772
0.989548
0.813133
0.729686
0.647591
0.549175
0.485327
0.41965
0.344025
0.290958
0.241331
0.189372
0.153995
0.133536
0.110683
0.0818292
0.0576092
0.0394215
0.0250136
0.0137795
0.00711402
0.00484209
0.00303503
0.000733931
0.339962
1.07149
1.97053
3.21561
5.11908
8.22532
13.2404
19.662
21.623
19.5691
19.4213
18.2966
15.9275
15.4654
14.4876
12.7472
12.4105
11.0986
8.53524
7.12205
6.89784
6.42612
5.56194
5.28224
4.82685
4.1071
3.82646
3.44797
2.90894
2.79698
3.07589
3.03227
2.65377
2.53839
2.33829
2.01532
1.91919
1.76983
1.53648
1.46495
1.29001
0.977055
0.78822
0.727568
0.651895
0.541388
0.48603
0.422033
0.337438
0.287888
0.23894
0.181473
0.146476
0.131357
0.110027
0.0781542
0.0529699
0.0350801
0.0209612
0.00951724
0.00355959
0.00290068
0.00214319
0.000473502
0.297244
0.939706
1.73979
2.87536
4.68517
7.84701
13.5145
21.8128
23.8035
20.2088
20.4916
19.2733
16.0409
16.0399
15.0781
12.8121
12.9941
11.6682
8.38287
6.85763
6.99053
6.58049
5.49182
5.3802
4.94058
4.04407
3.87102
3.49266
2.79848
2.71116
3.19972
3.17893
2.6553
2.60675
2.40817
1.9971
1.96074
1.81844
1.5286
1.5173
1.3438
0.953112
0.752006
0.726997
0.659386
0.528608
0.487547
0.426303
0.327751
0.284901
0.237475
0.171752
0.137364
0.129874
0.110425
0.073986
0.0478443
0.030546
0.016851
0.00488523
-0.000322826
0.00102753
0.00134317
0.000255239
0.252298
0.799731
1.48945
2.49042
4.15066
7.26373
13.544
24.4272
26.3825
20.4777
21.6477
20.3853
15.8637
16.6742
15.7582
12.6578
13.6854
12.3863
8.08154
6.45819
7.12717
6.7881
5.33837
5.50288
5.08973
3.91984
3.93178
3.56331
2.63919
2.57818
3.36316
3.36364
2.61476
2.68538
2.49377
1.94655
2.00984
1.87797
1.49643
1.58172
1.41443
0.91346
0.701811
0.730217
0.672139
0.508451
0.49079
0.433684
0.313564
0.282459
0.237688
0.15969
0.126275
0.129515
0.112313
0.0690816
0.0421769
0.0258745
0.0127892
-0.000164562
-0.00459036
-0.000693886
0.000667633
8.51554e-05
0.20598
0.654362
1.22486
2.06903
3.52206
6.4499
13.2001
27.649
29.4843
20.1628
22.9499
21.7123
15.2631
17.4203
16.585
12.1764
14.5346
13.3159
7.57661
5.89088
7.33933
7.07643
5.06113
5.6669
5.29354
3.70548
4.02064
3.67579
2.41709
2.38261
3.58288
3.60086
2.50973
2.78178
2.60438
1.84885
2.07258
1.95508
1.42792
1.66375
1.50895
0.852152
0.634407
0.74029
0.692878
0.477367
0.49709
0.445838
0.292799
0.281237
0.240575
0.144555
0.11271
0.130823
0.116229
0.0630632
0.0359154
0.0211316
0.00891332
-0.00570245
-0.00932342
-0.00215273
0.000146634
-3.36916e-05
0.1591
0.506319
0.951578
1.62108
2.81189
5.38909
12.302
31.6625
33.2752
18.9666
24.4927
23.3665
14.0525
18.3551
17.6399
11.2159
15.6112
14.539
6.79407
5.11666
7.66873
7.48171
4.60223
5.89613
5.57825
3.3598
4.15441
3.85092
2.11419
2.10431
3.8804
3.9097
2.30852
2.9072
2.7529
1.68303
2.15781
2.05912
1.306
1.77108
1.63645
0.761066
0.546028
0.761255
0.725142
0.430245
0.508369
0.464986
0.262478
0.282227
0.247425
0.125339
0.0960458
0.134492
0.122831
0.0553759
0.0290273
0.0163929
0.00539945
-0.0118266
-0.0146309
-0.00320193
-0.000196213
-0.000101623
0.112387
0.35812
0.67507
1.15749
2.03904
4.08155
10.6017
36.7004
37.9767
16.4816
26.4178
25.5019
11.9742
19.5882
19.0346
9.56585
17.0103
16.1598
5.63555
4.09037
8.16892
8.0513
3.88125
6.22431
5.97899
2.82553
4.35657
4.11528
1.70779
1.71744
4.28301
4.31527
1.96737
3.07805
2.95682
1.42002
2.27808
2.20284
1.10705
1.91426
1.80846
0.629318
0.432428
0.798297
0.773494
0.35996
0.527376
0.494055
0.218453
0.28687
0.259875
0.10069
0.0755327
0.141387
0.132921
0.0452368
0.0215247
0.0117397
0.00247188
-0.0186697
-0.0206563
-0.00364743
-0.000348949
-0.000122275
0.0664763
0.212003
0.40041
0.689507
1.22822
2.55438
7.7653
43.0526
43.8803
12.1622
28.9296
28.3236
8.67986
21.2723
20.9195
6.94237
18.861
18.3078
3.97258
2.76128
8.90664
8.8465
2.78915
6.69815
6.542
2.02501
4.65946
4.50201
1.16974
1.18948
4.82463
4.85025
1.42732
3.31758
3.23934
1.02046
2.45079
2.40338
0.799133
2.10763
2.03929
0.442601
0.289006
0.857871
0.843765
0.256824
0.557966
0.53683
0.155076
0.297212
0.27995
0.0688297
0.0502907
0.152575
0.147468
0.0315771
0.0134974
0.00724994
0.000413376
-0.0264058
-0.0275842
-0.00323536
-0.000317913
-0.000101741
0.0218949
0.0698579
0.132064
0.227886
0.408328
0.874392
3.35264
51.075
51.3657
5.29067
32.3137
32.0981
3.70713
23.6146
23.4922
2.96964
21.3358
21.141
1.64039
1.07442
9.96292
9.94598
1.18137
7.38109
7.32692
0.855207
5.10695
5.0513
0.465707
0.48021
5.54661
5.5568
0.610517
3.65792
3.63052
0.432066
2.69949
2.68316
0.340009
2.37039
2.34642
0.18246
0.111011
0.947796
0.943345
0.107982
0.605437
0.59812
0.064843
0.316115
0.310103
0.0274705
0.0193205
0.169343
0.167642
0.0129753
0.00515652
0.00298403
-0.000422897
-0.035258
-0.0356474
-0.00163736
-0.000135807
-4.65274e-05
)
;

boundaryField
{
    left
    {
        type            calculated;
        value           uniform 0;
    }
    right
    {
        type            calculated;
        value           uniform 0;
    }
    interface
    {
        type            calculated;
        value           nonuniform List<scalar> 
64
(
0.0218949
0.0698579
0.132064
0.227886
0.408328
0.874392
3.35264
51.075
51.3657
5.29067
32.3137
32.0981
3.70713
23.6146
23.4922
2.96964
21.3358
21.141
1.64039
1.07442
9.96292
9.94598
1.18137
7.38109
7.32692
0.855207
5.10695
5.0513
0.465707
0.48021
5.54661
5.5568
0.610517
3.65792
3.63052
0.432066
2.69949
2.68316
0.340009
2.37039
2.34642
0.18246
0.111011
0.947796
0.943345
0.107982
0.605437
0.59812
0.064843
0.316115
0.310103
0.0274705
0.0193205
0.169343
0.167642
0.0129753
0.00515652
0.00298403
-0.000422897
-0.035258
-0.0356474
-0.00163736
-0.000135807
-4.65274e-05
)
;
    }
    bottom
    {
        type            calculated;
        value           nonuniform List<scalar> 
64
(
0.0222093
0.0663809
0.109789
0.151857
0.191927
0.229269
0.263124
0.292762
0.317561
0.33707
0.351058
0.359531
0.362721
0.361047
0.35507
0.34544
0.332854
0.318007
0.301565
0.284133
0.266244
0.24834
0.230779
0.213828
0.197679
0.182457
0.16823
0.155016
0.1428
0.131535
0.121153
0.111575
0.102718
0.0944989
0.0868446
0.0796909
0.0729857
0.0666885
0.0607696
0.0552081
0.0499902
0.0451074
0.0405536
0.0363239
0.0324123
0.0288111
0.0255103
0.0224977
0.0197593
0.0172796
0.0150421
0.0130298
0.0112256
0.00961224
0.00817259
0.00688983
0.00574737
0.00472882
0.00381798
0.0029986
0.00225436
0.00156867
0.000924733
0.000305544
)
;
    }
    defaultFaces
    {
        type            empty;
    }
}


// ************************************************************************* //
