/*--------------------------------*- C++ -*----------------------------------*\
| =========                 |                                                 |
| \\      /  F ield         | OpenFOAM: The Open Source CFD Toolbox           |
|  \\    /   O peration     | Version:  5.x                                   |
|   \\  /    A nd           | Web:      www.OpenFOAM.org                      |
|    \\/     M anipulation  |                                                 |
\*---------------------------------------------------------------------------*/
FoamFile
{
    version     2.0;
    format      ascii;
    class       volScalarField;
    location    "9.8";
    object      T;
}
// * * * * * * * * * * * * * * * * * * * * * * * * * * * * * * * * * * * * * //

dimensions      [0 0 0 1 0 0 0];

internalField   nonuniform List<scalar> 
2048
(
9.85534
9.85603
9.85741
9.85946
9.86216
9.86546
9.86932
9.87369
9.87847
9.88361
9.88901
9.89458
9.90024
9.90591
9.91152
9.91701
9.92232
9.92741
9.93226
9.93684
9.94114
9.94516
9.9489
9.95237
9.95558
9.95855
9.96128
9.9638
9.96613
9.96827
9.97024
9.97205
9.97372
9.97526
9.97668
9.97798
9.97917
9.98026
9.98125
9.98215
9.98298
9.98372
9.98439
9.98498
9.98552
9.986
9.98642
9.98679
9.98712
9.98741
9.98766
9.98788
9.98807
9.98823
9.98837
9.98849
9.98859
9.98867
9.98873
9.98879
9.98883
9.98886
9.98888
9.98889
9.57177
9.57383
9.57792
9.58401
9.59201
9.60181
9.61328
9.62623
9.64045
9.6557
9.67173
9.68827
9.70508
9.72191
9.73855
9.75481
9.77054
9.78562
9.79996
9.8135
9.82622
9.8381
9.84915
9.8594
9.86888
9.87764
9.88571
9.89316
9.90001
9.90632
9.91214
9.91749
9.92243
9.92697
9.93114
9.93498
9.93849
9.94171
9.94464
9.94731
9.94974
9.95192
9.95389
9.95566
9.95724
9.95865
9.9599
9.961
9.96197
9.96282
9.96356
9.9642
9.96476
9.96523
9.96564
9.96598
9.96627
9.96651
9.96671
9.96686
9.96698
9.96707
9.96713
9.96715
9.29905
9.30243
9.30915
9.31915
9.3323
9.34843
9.3673
9.38863
9.41205
9.43717
9.46356
9.4908
9.51844
9.5461
9.57342
9.6001
9.62588
9.65058
9.67404
9.69619
9.71696
9.73635
9.75437
9.77108
9.78653
9.80079
9.81393
9.82604
9.83719
9.84747
9.85693
9.86565
9.87367
9.88106
9.88786
9.8941
9.89983
9.90506
9.90984
9.91419
9.91813
9.92169
9.92489
9.92777
9.93033
9.93262
9.93464
9.93643
9.938
9.93938
9.94058
9.94162
9.94252
9.94329
9.94395
9.94451
9.94497
9.94536
9.94567
9.94592
9.94612
9.94626
9.94635
9.94639
9.03592
9.04058
9.04987
9.06369
9.08189
9.10423
9.13039
9.15997
9.19247
9.22732
9.26393
9.30167
9.33995
9.37821
9.41596
9.45277
9.48831
9.5223
9.55455
9.58495
9.61343
9.63999
9.66465
9.6875
9.7086
9.72807
9.746
9.76252
9.77774
9.79175
9.80465
9.81654
9.82749
9.83758
9.84685
9.85537
9.86319
9.87034
9.87686
9.88279
9.88816
9.89302
9.89739
9.9013
9.9048
9.9079
9.91066
9.91309
9.91522
9.91709
9.91872
9.92013
9.92135
9.92239
9.92328
9.92403
9.92466
9.92518
9.9256
9.92594
9.9262
9.92639
9.92651
9.92657
8.78134
8.78726
8.79907
8.81664
8.83981
8.86829
8.90169
8.93947
8.981
9.02554
9.0723
9.12047
9.16927
9.21799
9.26598
9.3127
9.35773
9.40073
9.44146
9.47979
9.51565
9.54904
9.58001
9.60867
9.63512
9.6595
9.68195
9.70261
9.72164
9.73916
9.7553
9.77017
9.78388
9.7965
9.80812
9.81879
9.82857
9.83753
9.84569
9.85312
9.85984
9.86591
9.87137
9.87626
9.88062
9.8845
9.88793
9.89095
9.89361
9.89593
9.89795
9.8997
9.90121
9.9025
9.9036
9.90453
9.90531
9.90595
9.90647
9.90688
9.9072
9.90743
9.90758
9.90766
8.53447
8.54162
8.55589
8.57716
8.60525
8.63983
8.68044
8.72644
8.77704
8.8313
8.88823
8.94683
9.00611
9.06519
9.12328
9.17974
9.23404
9.28578
9.33471
9.38066
9.42357
9.46346
9.50042
9.53456
9.56604
9.59504
9.62172
9.64627
9.66887
9.68967
9.70884
9.72651
9.7428
9.75781
9.77162
9.78431
9.79596
9.80661
9.81632
9.82514
9.83314
9.84035
9.84682
9.85262
9.85779
9.86237
9.86643
9.87
9.87313
9.87587
9.87825
9.88031
9.88208
9.8836
9.88489
9.88597
9.88688
9.88763
9.88823
9.88872
9.88909
9.88935
9.88953
9.88961
8.29461
8.30297
8.31964
8.34455
8.37751
8.41817
8.46602
8.5203
8.58005
8.64414
8.71134
8.78042
8.85019
8.91959
8.9877
9.05373
9.1171
9.17736
9.2342
9.28747
9.33711
9.38318
9.42579
9.4651
9.50131
9.53462
9.56525
9.59342
9.61935
9.64322
9.66521
9.68549
9.7042
9.72144
9.73731
9.75191
9.76529
9.77753
9.7887
9.79884
9.80802
9.81629
9.82371
9.83035
9.83626
9.8415
9.84612
9.8502
9.85376
9.85688
9.85958
9.86192
9.86392
9.86564
9.8671
9.86832
9.86934
9.87018
9.87086
9.8714
9.87182
9.87212
9.87231
9.87241
8.0612
8.07072
8.08975
8.11822
8.156
8.20274
8.25787
8.32053
8.38959
8.46366
8.54128
8.62096
8.70128
8.781
8.85904
8.93453
9.00679
9.07532
9.13981
9.2001
9.25617
9.30809
9.35602
9.40018
9.44081
9.47814
9.51245
9.54398
9.57299
9.5997
9.62432
9.64703
9.66799
9.68732
9.70512
9.7215
9.73652
9.75026
9.76278
9.77415
9.78443
9.79369
9.80199
9.8094
9.81599
9.82183
9.82698
9.8315
9.83546
9.83891
9.84191
9.84449
9.8467
9.84859
9.8502
9.85154
9.85266
9.85358
9.85432
9.85491
9.85536
9.85569
9.8559
9.856
7.83379
7.84443
7.86572
7.89768
7.94021
7.99301
8.05549
8.12668
8.20523
8.28951
8.37775
8.46818
8.55914
8.6492
8.73713
8.82197
8.90295
8.97954
9.05142
9.11843
9.18059
9.23804
9.29098
9.33967
9.3844
9.42547
9.46318
9.49782
9.52967
9.559
9.58606
9.61103
9.63409
9.65537
9.67498
9.69302
9.70957
9.72471
9.7385
9.75102
9.76233
9.77251
9.78162
9.78974
9.79695
9.80333
9.80895
9.81388
9.81819
9.82194
9.82519
9.82799
9.83038
9.83243
9.83415
9.8356
9.8368
9.83778
9.83858
9.8392
9.83968
9.84003
9.84025
9.84036
7.61203
7.62372
7.64719
7.68251
7.7297
7.78854
7.85844
7.93832
8.02661
8.12137
8.22049
8.32186
8.42359
8.52403
8.62182
8.71588
8.80542
8.88985
8.96885
9.04229
9.11023
9.17288
9.23049
9.2834
9.33195
9.37647
9.4173
9.4548
9.48927
9.52101
9.55031
9.57737
9.60238
9.62549
9.64679
9.66639
9.68438
9.70083
9.71581
9.7294
9.74166
9.75268
9.76254
9.7713
9.77908
9.78595
9.79199
9.79728
9.8019
9.80591
9.80939
9.81237
9.81492
9.81709
9.81892
9.82045
9.82172
9.82276
9.82359
9.82425
9.82474
9.8251
9.82533
9.82545
7.39564
7.40832
7.43382
7.47236
7.52409
7.58892
7.66631
7.75509
7.85342
7.95898
8.06926
8.18181
8.29444
8.40531
8.51292
8.61612
8.71404
8.8061
8.89195
8.97151
9.04491
9.11242
9.17439
9.23122
9.28328
9.33097
9.37468
9.41478
9.45164
9.48559
9.51695
9.54595
9.57278
9.59758
9.62046
9.64153
9.66085
9.67853
9.69462
9.70921
9.72236
9.73416
9.74469
9.75405
9.76233
9.76963
9.77604
9.78166
9.78655
9.79079
9.79445
9.7976
9.80028
9.80256
9.80447
9.80607
9.80739
9.80847
9.80933
9.81
9.81051
9.81088
9.81112
9.81123
7.18442
7.198
7.22538
7.26694
7.32304
7.39379
7.47874
7.57664
7.68535
7.8021
7.92388
8.04786
8.17154
8.29288
8.41028
8.5225
8.62865
8.72811
8.82054
8.90591
8.98444
9.05648
9.12249
9.18292
9.23821
9.28881
9.33513
9.3776
9.41663
9.4526
9.48585
9.51663
9.54515
9.57154
9.5959
9.61833
9.63892
9.65774
9.67487
9.69038
9.70436
9.71687
9.72802
9.73791
9.74664
9.75433
9.76107
9.76696
9.77209
9.77653
9.78035
9.78363
9.78642
9.78878
9.79076
9.79241
9.79377
9.79487
9.79575
9.79644
9.79695
9.79732
9.79756
9.79768
6.97824
6.9926
7.02167
7.066
7.12625
7.2028
7.29537
7.40265
7.52215
7.65052
7.78419
7.91986
8.05474
8.18659
8.31372
8.43486
8.54906
8.6557
8.75444
8.8453
8.92861
9.00486
9.07459
9.13832
9.19657
9.24981
9.29851
9.34312
9.38411
9.4219
9.45687
9.4893
9.51939
9.54726
9.57301
9.59673
9.61849
9.63838
9.65648
9.67286
9.6876
9.70077
9.71247
9.72283
9.73196
9.73999
9.74702
9.75315
9.75848
9.76308
9.76704
9.77042
9.7733
9.77572
9.77776
9.77944
9.78083
9.78194
9.78283
9.78352
9.78404
9.7844
9.78464
9.78475
6.77702
6.79204
6.82255
6.86936
6.93346
7.01563
7.11586
7.23282
7.36358
7.50406
7.65003
7.79769
7.9439
8.08628
8.22309
8.35301
8.47509
8.58869
8.69346
8.78948
8.87722
8.95734
9.03047
9.09723
9.15817
9.2138
9.26464
9.31117
9.35391
9.39334
9.42987
9.46383
9.49539
9.52465
9.5517
9.57662
9.59949
9.62038
9.63939
9.65657
9.67201
9.68578
9.69799
9.70876
9.71824
9.72656
9.73383
9.74017
9.74567
9.75041
9.75447
9.75794
9.76088
9.76335
9.76542
9.76713
9.76853
9.76965
9.77054
9.77122
9.77173
9.77209
9.77232
9.77243
6.58071
6.59624
6.62791
6.67684
6.74444
6.83197
6.93987
7.06684
7.20943
7.3626
7.52131
7.68124
7.8389
7.9918
8.1382
8.27676
8.40655
8.5269
8.63741
8.73823
8.83005
8.9137
8.98993
9.05943
9.12281
9.18061
9.23336
9.28161
9.32589
9.36677
9.40473
9.4401
9.47303
9.5036
9.53188
9.55793
9.58182
9.60366
9.62351
9.64145
9.65754
9.67186
9.68451
9.69564
9.70542
9.71399
9.72147
9.72798
9.73361
9.73846
9.74261
9.74614
9.74912
9.75163
9.75372
9.75544
9.75684
9.75796
9.75883
9.7595
9.76
9.76035
9.76057
9.76068
6.38932
6.40519
6.43771
6.48832
6.55896
6.65153
6.76706
6.90443
7.05952
7.22601
7.39792
7.57041
7.73961
7.90299
8.05888
8.20593
8.34324
8.47013
8.5861
8.69136
8.78688
8.87373
8.95276
9.02474
9.09033
9.15007
9.20452
9.25427
9.29991
9.34205
9.38129
9.41798
9.4522
9.48401
9.51345
9.54056
9.56542
9.58814
9.60878
9.62742
9.64412
9.65894
9.67198
9.68342
9.69345
9.70222
9.70987
9.71653
9.72227
9.72721
9.73142
9.73499
9.738
9.74052
9.74261
9.74434
9.74573
9.74683
9.74769
9.74834
9.74882
9.74915
9.74937
9.74946
6.20286
6.2189
6.25192
6.30372
6.37685
6.47402
6.59709
6.74529
6.9137
7.09422
7.27981
7.46514
7.64593
7.81968
7.98493
8.14029
8.28495
8.41822
8.53934
8.64865
8.74747
8.8372
8.91874
8.99295
9.06053
9.122
9.17795
9.22902
9.27581
9.31905
9.35944
9.39735
9.43281
9.46579
9.49633
9.52443
9.5502
9.57375
9.59513
9.61443
9.6317
9.64697
9.66034
9.67203
9.68227
9.69122
9.69901
9.70577
9.7116
9.7166
9.72085
9.72445
9.72747
9.72999
9.73208
9.73379
9.73517
9.73625
9.73708
9.73771
9.73816
9.73847
9.73867
9.73877
6.02138
6.03739
6.07054
6.12298
6.19795
6.29915
6.42959
6.58912
6.77186
6.96719
7.16691
7.36538
7.55773
7.74169
7.91618
8.07965
8.23146
8.37097
8.49697
8.60988
8.71159
8.80388
8.88766
8.96385
9.03325
9.09625
9.15351
9.20572
9.25348
9.29761
9.33902
9.37812
9.41475
9.44885
9.48044
9.50948
9.53608
9.56041
9.58249
9.60241
9.62022
9.63589
9.64954
9.66144
9.67184
9.68092
9.68882
9.69567
9.70157
9.70661
9.71089
9.71448
9.71749
9.72
9.72208
9.72378
9.72513
9.72618
9.72698
9.72757
9.728
9.72829
9.72847
9.72856
5.84495
5.86073
5.89359
5.94608
6.02213
6.12664
6.26415
6.43558
6.63395
6.84493
7.05918
7.27109
7.47491
7.66883
7.85243
8.02377
8.18253
8.32824
8.45882
8.57482
8.67897
8.77355
8.85931
8.93726
9.00831
9.07267
9.13105
9.18425
9.23277
9.27761
9.31992
9.36018
9.39795
9.4331
9.46571
9.49562
9.523
9.54806
9.57079
9.59129
9.60963
9.62567
9.63954
9.65158
9.66211
9.67129
9.67927
9.68619
9.69213
9.69719
9.70148
9.70506
9.70805
9.71054
9.7126
9.71427
9.71558
9.7166
9.71736
9.71791
9.71831
9.71857
9.71874
9.71881
5.67361
5.68898
5.72114
5.77301
5.84929
5.95622
6.10033
6.28431
6.49998
6.72747
6.95654
7.18225
7.39735
7.60087
7.7935
7.97241
8.1379
8.28988
8.42474
8.54326
8.64937
8.74602
8.83349
8.91297
8.98557
9.05112
9.11042
9.16449
9.21358
9.25889
9.302
9.34343
9.38231
9.41847
9.45207
9.48279
9.51087
9.53664
9.55997
9.58102
9.59989
9.61626
9.63027
9.6424
9.65303
9.66228
9.67031
9.67729
9.68325
9.68832
9.69259
9.69616
9.6991
9.70155
9.70359
9.70523
9.70651
9.70748
9.7082
9.70871
9.70906
9.70929
9.70944
9.70951
5.50745
5.5222
5.55325
5.60383
5.67938
5.78763
5.93765
6.13485
6.37009
6.61491
6.8589
7.09891
7.32492
7.53752
7.73921
7.92532
8.09727
8.25578
8.39463
8.51496
8.62249
8.72107
8.81001
8.89078
8.96489
9.03145
9.09149
9.14634
9.1958
9.24134
9.28511
9.32781
9.36776
9.40486
9.43946
9.47091
9.49962
9.5261
9.54997
9.57153
9.59095
9.60762
9.62169
9.63385
9.64456
9.65385
9.6619
9.66893
9.6749
9.67995
9.68421
9.68773
9.69062
9.69303
9.69504
9.69665
9.69788
9.6988
9.69947
9.69993
9.70024
9.70043
9.70057
9.70062
5.34651
5.36046
5.38999
5.43859
5.51238
5.62063
5.77556
5.98668
6.24455
6.50738
6.76609
7.02115
7.25752
7.47846
7.68946
7.88226
8.06027
8.2259
8.36839
8.48967
8.59802
8.69855
8.78869
8.87048
8.94617
9.01354
9.07411
9.12974
9.17934
9.22479
9.26911
9.31325
9.35425
9.39219
9.42784
9.45994
9.48917
9.51637
9.54073
9.56275
9.58278
9.59971
9.61376
9.62587
9.63665
9.64595
9.65401
9.66108
9.66704
9.67205
9.6763
9.67977
9.68258
9.68493
9.68692
9.68849
9.68967
9.69054
9.69115
9.69156
9.69182
9.69198
9.69209
9.69213
5.19085
5.20383
5.23147
5.2774
5.34831
5.45505
5.61345
5.83908
6.12388
6.40508
6.67779
6.94916
7.19502
7.42323
7.64418
7.84294
8.02645
8.20024
8.34599
8.46712
8.57561
8.67832
8.76936
8.85184
8.92931
8.99728
9.05811
9.11462
9.16413
9.20911
9.25383
9.29972
9.34171
9.38037
9.41717
9.4498
9.47944
9.50743
9.53219
9.55461
9.57537
9.59251
9.60642
9.61841
9.62929
9.63857
9.64658
9.65372
9.65965
9.6646
9.66883
9.67223
9.67495
9.67724
9.67921
9.68074
9.68187
9.68267
9.68323
9.68358
9.68378
9.6839
9.68399
9.68402
5.04049
5.05235
5.07775
5.12038
5.18728
5.29073
5.45065
5.69109
6.0089
6.30823
6.59351
6.88326
7.13729
7.37126
7.60344
7.80711
7.99524
8.17895
8.3274
8.44702
8.55485
8.66033
8.75186
8.83459
8.91429
8.98255
9.04331
9.10098
9.1501
9.19414
9.23908
9.28724
9.3301
9.36929
9.40746
9.44046
9.47032
9.49925
9.5243
9.54701
9.5687
9.586
9.59962
9.61141
9.62242
9.63165
9.63959
9.64681
9.6527
9.65756
9.66179
9.66511
9.66771
9.66992
9.67188
9.67338
9.67444
9.67518
9.67567
9.67596
9.6761
9.67618
9.67625
9.67628
4.89545
4.90608
4.92894
4.96766
5.02943
5.12763
5.28647
5.54139
5.9009
6.21711
6.51244
6.82402
7.08421
7.32176
7.5675
7.7745
7.96585
8.16232
8.31268
8.42905
8.53525
8.64461
8.73606
8.81842
8.90113
8.96926
9.02948
9.08883
9.13723
9.17974
9.22463
9.27586
9.31939
9.35879
9.39872
9.43186
9.4617
9.49184
9.517
9.53985
9.56278
9.58016
9.59332
9.6048
9.61605
9.62517
9.63297
9.64036
9.64616
9.6509
9.65516
9.65837
9.66083
9.66295
9.66493
9.66638
9.66737
9.66804
9.66847
9.66869
9.66877
9.66881
9.66886
9.66887
4.75573
4.76502
4.78509
4.81939
4.87495
4.9658
5.12017
5.38812
5.80182
6.13198
6.43334
6.77235
7.03563
7.27363
7.53688
7.74482
7.93726
8.15088
8.30189
8.41285
8.51619
8.6313
8.72183
8.80292
8.88996
8.95731
9.01634
9.07828
9.12549
9.16573
9.21021
9.26573
9.30955
9.3487
9.39101
9.42396
9.45342
9.48523
9.51025
9.533
9.55766
9.57499
9.58745
9.59849
9.61017
9.6191
9.62669
9.63434
9.64001
9.64458
9.64891
9.652
9.65428
9.65629
9.65834
9.65974
9.66065
9.66124
9.6616
9.66176
9.66176
9.66175
9.66179
9.6618
4.62129
4.62918
4.64628
4.67572
4.72411
4.80543
4.9511
5.22868
5.71445
6.05313
6.35438
6.72962
6.99142
7.22536
7.51249
7.71781
7.90804
8.14548
8.29511
8.39802
8.49693
8.62075
8.70906
8.78757
8.88102
8.94663
9.00352
9.06949
9.11487
9.15197
9.19544
9.25707
9.30055
9.33878
9.38447
9.41671
9.4453
9.47952
9.50399
9.52628
9.55342
9.57048
9.58196
9.59241
9.60478
9.61342
9.62067
9.62875
9.63422
9.63855
9.64305
9.64598
9.64804
9.64993
9.65209
9.65344
9.65425
9.65475
9.65506
9.65515
9.65505
9.65501
9.65503
9.65503
4.4921
4.49853
4.51254
4.53681
4.5772
4.64687
4.77876
5.05938
5.64279
5.98076
6.27288
6.69794
6.95139
7.17492
7.49577
7.6932
7.87629
8.1474
8.29241
8.38417
8.4765
8.61353
8.69764
8.77169
8.87473
8.93711
8.99052
9.06276
9.10539
9.13829
9.17985
9.25026
9.29238
9.32868
9.37931
9.41007
9.43708
9.47484
9.49818
9.51946
9.55017
9.56662
9.5768
9.58644
9.59994
9.60809
9.61485
9.62363
9.62879
9.63278
9.63758
9.6403
9.64209
9.64382
9.64618
9.64745
9.64815
9.64857
9.64881
9.64885
9.64863
9.64856
9.64857
9.64857
4.36807
4.37304
4.38389
4.40278
4.43455
4.49065
4.60296
4.87509
5.59242
5.91494
6.18512
6.68034
6.91532
7.11948
7.48892
7.67072
7.83942
8.15857
8.29376
8.37089
8.45366
8.61054
8.68746
8.75436
8.87171
8.92868
8.97671
9.0585
9.09705
9.12457
9.16281
9.24583
9.28499
9.31797
9.37584
9.404
9.42843
9.47143
9.49278
9.51225
9.54812
9.56338
9.57191
9.58045
9.5957
9.60311
9.60914
9.619
9.62367
9.6272
9.63249
9.63493
9.63641
9.63793
9.64061
9.64177
9.64234
9.64268
9.64286
9.64285
9.64249
9.64239
9.64239
9.64238
4.24914
4.25265
4.26033
4.27374
4.2965
4.33746
4.42405
4.66877
5.57093
5.85554
6.08599
6.68109
6.88292
7.05529
7.49505
7.65012
7.79398
8.18169
8.29898
8.3578
8.4268
8.61308
8.6784
8.73437
8.87291
8.92121
8.96121
9.05736
9.08981
9.11072
9.14348
9.24457
9.27834
9.30605
9.37453
9.39845
9.4189
9.46964
9.48774
9.50423
9.54756
9.56075
9.56723
9.57426
9.59217
9.59843
9.60342
9.61491
9.61886
9.62174
9.62783
9.62986
9.63097
9.63222
9.63539
9.63638
9.6368
9.63705
9.63717
9.63713
9.63659
9.63648
9.63647
9.63647
4.13518
4.13726
4.14181
4.14977
4.16335
4.18815
4.24318
4.43082
5.58857
5.80208
5.96864
6.70613
6.85375
6.97738
7.51851
7.63111
7.73546
8.22052
8.30758
8.34466
8.39387
8.62299
8.67032
8.71015
8.87964
8.91459
8.94292
9.0602
9.08361
9.09675
9.12078
9.24752
9.27235
9.29213
9.37603
9.39336
9.40791
9.46994
9.48302
9.49492
9.54888
9.55864
9.56272
9.56767
9.58952
9.59404
9.59755
9.61148
9.61433
9.61632
9.62361
9.62507
9.62576
9.62665
9.63053
9.63125
9.63152
9.63168
9.63175
9.63169
9.63092
9.63083
9.63082
9.63082
4.0261
4.02678
4.02828
4.03091
4.0354
4.04367
4.06272
4.14844
5.65882
5.75362
5.82415
6.76342
6.82722
6.87927
7.56517
7.6134
7.65798
8.28014
8.31863
8.33141
8.35221
8.64275
8.66302
8.67966
8.89368
8.90863
8.9204
9.06822
9.07826
9.08278
9.09326
9.25611
9.26691
9.27519
9.38122
9.38864
9.39473
9.473
9.47857
9.48362
9.55265
9.55695
9.55835
9.56042
9.58797
9.5899
9.59134
9.60882
9.61003
9.61085
9.61991
9.62054
9.62077
9.62114
9.62606
9.62638
9.62647
9.62654
9.62656
9.62653
9.62546
9.62541
9.62541
9.62541
)
;

boundaryField
{
    left
    {
        type            zeroGradient;
    }
    right
    {
        type            zeroGradient;
    }
    interface
    {
        type            fixedValue;
        value           nonuniform List<scalar> 
64
(
3.97275
3.97275
3.97275
3.97275
3.97275
3.97275
3.97275
3.97275
5.73057
5.73057
5.73057
6.81456
6.81456
6.81456
7.60484
7.60484
7.60484
8.32471
8.32471
8.32471
8.32471
8.65954
8.65954
8.65954
8.9058
8.9058
8.9058
9.07579
9.07579
9.07579
9.07579
9.26432
9.26432
9.26432
9.38637
9.38637
9.38637
9.47641
9.47641
9.47641
9.5562
9.5562
9.5562
9.5562
9.58789
9.58789
9.58789
9.60795
9.60795
9.60795
9.61833
9.61833
9.61833
9.61833
9.624
9.624
9.624
9.62403
9.62403
9.62403
9.62276
9.62276
9.62276
9.62276
)
;
    }
    bottom
    {
        type            fixedValue;
        value           uniform 10;
    }
    defaultFaces
    {
        type            empty;
    }
}


// ************************************************************************* //
