/*--------------------------------*- C++ -*----------------------------------*\
| =========                 |                                                 |
| \\      /  F ield         | OpenFOAM: The Open Source CFD Toolbox           |
|  \\    /   O peration     | Version:  5.x                                   |
|   \\  /    A nd           | Web:      www.OpenFOAM.org                      |
|    \\/     M anipulation  |                                                 |
\*---------------------------------------------------------------------------*/
FoamFile
{
    version     2.0;
    format      ascii;
    class       volScalarField;
    location    "10";
    object      gradTy;
}
// * * * * * * * * * * * * * * * * * * * * * * * * * * * * * * * * * * * * * //

dimensions      [0 -1 0 1 0 0 0];

internalField   nonuniform List<scalar> 
2048
(
-20.1557
-20.0588
-19.8662
-19.58
-19.2037
-18.7425
-18.2032
-17.594
-16.9251
-16.2077
-15.4537
-14.6754
-13.8847
-13.0929
-12.31
-11.5448
-10.8044
-10.0945
-9.4193
-8.78148
-8.18255
-7.62293
-7.10217
-6.61915
-6.17226
-5.75955
-5.37888
-5.02802
-4.70475
-4.40692
-4.13252
-3.87971
-3.64681
-3.43237
-3.23509
-3.05381
-2.88752
-2.7353
-2.59631
-2.46976
-2.35491
-2.25101
-2.15736
-2.07325
-1.99798
-1.93088
-1.87128
-1.81855
-1.77208
-1.73129
-1.69565
-1.66465
-1.63782
-1.61474
-1.595
-1.57826
-1.56419
-1.55251
-1.54297
-1.53536
-1.52948
-1.5252
-1.5224
-1.52102
-20.234
-20.1363
-19.9419
-19.6528
-19.2725
-18.8058
-18.2596
-17.6424
-16.9644
-16.2372
-15.4733
-14.6854
-13.8856
-13.0857
-12.2957
-11.5247
-10.7797
-10.0665
-9.38904
-8.75002
-8.15075
-7.59149
-7.07164
-6.58992
-6.1446
-5.73363
-5.35476
-5.0057
-4.68416
-4.38796
-4.11505
-3.86358
-3.63188
-3.41849
-3.22213
-3.04167
-2.87612
-2.72458
-2.58623
-2.46029
-2.34603
-2.24271
-2.14962
-2.06607
-1.99136
-1.92479
-1.8657
-1.81347
-1.76746
-1.72711
-1.69188
-1.66125
-1.63477
-1.612
-1.59255
-1.57607
-1.56223
-1.55076
-1.54139
-1.53392
-1.52816
-1.52396
-1.52123
-1.51988
-20.3829
-20.2836
-20.0859
-19.7915
-19.4035
-18.9265
-18.3673
-17.7346
-17.0391
-16.2933
-15.5104
-14.7038
-13.8867
-13.0712
-12.2678
-11.4857
-10.7321
-10.0126
-9.33105
-8.68986
-8.09006
-7.5316
-7.01357
-6.53441
-6.09215
-5.68452
-5.30912
-4.9635
-4.64528
-4.35218
-4.08211
-3.83317
-3.60372
-3.3923
-3.19768
-3.01877
-2.85461
-2.70434
-2.56718
-2.44239
-2.32923
-2.227
-2.135
-2.05251
-1.97883
-1.91328
-1.85517
-1.80386
-1.75874
-1.71921
-1.68475
-1.65484
-1.62901
-1.60684
-1.58794
-1.57195
-1.55854
-1.54745
-1.53841
-1.53122
-1.52568
-1.52165
-1.51903
-1.51774
-20.5939
-20.4926
-20.2906
-19.989
-19.5903
-19.0988
-18.5211
-17.8661
-17.1455
-16.3726
-15.5622
-14.7288
-13.8868
-13.0489
-12.2265
-11.4287
-10.663
-9.93481
-9.2477
-8.6037
-8.00343
-7.44636
-6.93113
-6.4558
-6.01802
-5.61525
-5.24485
-4.90418
-4.5907
-4.30202
-4.03596
-3.7906
-3.56429
-3.35563
-3.16341
-2.98664
-2.8244
-2.6759
-2.5404
-2.41719
-2.30559
-2.20489
-2.1144
-2.03342
-1.96122
-1.8971
-1.84037
-1.79038
-1.74649
-1.70814
-1.67476
-1.64585
-1.62095
-1.59962
-1.58149
-1.56618
-1.55339
-1.54283
-1.53426
-1.52746
-1.52223
-1.51844
-1.51598
-1.51477
-20.8598
-20.7563
-20.5492
-20.2392
-19.8277
-19.3182
-18.7169
-18.0334
-17.2802
-16.4723
-15.6262
-14.7582
-13.8842
-13.0179
-12.1714
-11.354
-10.5733
-9.83445
-9.14074
-8.49367
-7.89326
-7.33837
-6.82706
-6.35684
-5.92496
-5.52851
-5.16455
-4.83023
-4.5228
-4.23971
-3.9787
-3.73781
-3.5154
-3.31012
-3.12086
-2.94669
-2.7868
-2.64046
-2.50699
-2.38574
-2.27605
-2.17727
-2.08868
-2.00958
-1.93924
-1.87693
-1.82193
-1.77359
-1.73127
-1.69437
-1.66235
-1.6347
-1.61095
-1.59068
-1.5735
-1.55905
-1.54702
-1.53714
-1.52915
-1.52283
-1.518
-1.51451
-1.51224
-1.51113
-21.174
-21.0683
-20.8562
-20.5372
-20.1113
-19.5809
-18.9518
-18.2338
-17.4407
-16.5898
-15.7
-14.79
-13.8773
-12.977
-12.1018
-11.2614
-10.4633
-9.71241
-9.0115
-8.36147
-7.76158
-7.2099
-6.70376
-6.24004
-5.81547
-5.42674
-5.07061
-4.74394
-4.44375
-4.16733
-3.91229
-3.67662
-3.45872
-3.25732
-3.07142
-2.90022
-2.74299
-2.5991
-2.46796
-2.34896
-2.24149
-2.14493
-2.05858
-1.98171
-1.91356
-1.85338
-1.80044
-1.75404
-1.71355
-1.67836
-1.64793
-1.62175
-1.59935
-1.58031
-1.56424
-1.5508
-1.53967
-1.53057
-1.52326
-1.51751
-1.51315
-1.51001
-1.50798
-1.50699
-21.5304
-21.4229
-21.2063
-20.8786
-20.4377
-19.8844
-19.2234
-18.4649
-17.6247
-16.7228
-15.7812
-14.8218
-13.8641
-12.9247
-12.0168
-11.1506
-10.3332
-9.56929
-8.86103
-8.20855
-7.61016
-7.06297
-6.5634
-6.10762
-5.69178
-5.31217
-4.96518
-4.64739
-4.35557
-4.08679
-3.83851
-3.60869
-3.39576
-3.1986
-3.01636
-2.84836
-2.69402
-2.5528
-2.42419
-2.30766
-2.20266
-2.10859
-2.02476
-1.95042
-1.88477
-1.82701
-1.77639
-1.7322
-1.69377
-1.66051
-1.63187
-1.60735
-1.58646
-1.56881
-1.55398
-1.54166
-1.53153
-1.52332
-1.51677
-1.51168
-1.50784
-1.5051
-1.50333
-1.50248
-21.9232
-21.8147
-21.595
-21.2597
-20.8042
-20.2267
-19.5303
-18.7255
-17.8305
-16.8691
-15.8677
-14.8514
-13.8427
-12.8594
-11.9155
-11.0211
-10.183
-9.40554
-8.6902
-8.03617
-7.44061
-6.89942
-6.40799
-5.96165
-5.55598
-5.18681
-4.85022
-4.54248
-4.26008
-3.99983
-3.75901
-3.53552
-3.32792
-3.13522
-2.9568
-2.79214
-2.64083
-2.50241
-2.37648
-2.26258
-2.16023
-2.06887
-1.98782
-1.91628
-1.8534
-1.79833
-1.75027
-1.7085
-1.67233
-1.64119
-1.61451
-1.59178
-1.57256
-1.5564
-1.54294
-1.53184
-1.5228
-1.51555
-1.50984
-1.50546
-1.5022
-1.4999
-1.49843
-1.49773
-22.3469
-22.2386
-22.0178
-21.6772
-21.2087
-20.6065
-19.8715
-19.0145
-18.0566
-17.0268
-15.9569
-14.8766
-13.811
-12.7797
-11.7968
-10.8723
-10.0126
-9.2215
-8.49975
-7.84548
-7.25443
-6.72103
-6.23942
-5.80408
-5.40995
-5.0525
-4.7275
-4.43093
-4.15895
-3.90806
-3.67529
-3.45852
-3.25642
-3.06829
-2.89373
-2.73248
-2.58424
-2.44869
-2.32551
-2.21434
-2.11478
-2.02632
-1.94827
-1.87978
-1.81993
-1.76778
-1.7225
-1.68333
-1.6496
-1.62071
-1.59612
-1.57533
-1.55788
-1.54333
-1.53131
-1.52151
-1.51363
-1.50741
-1.50261
-1.49899
-1.49635
-1.49454
-1.49338
-1.49285
-22.7959
-22.6895
-22.4706
-22.1283
-21.6494
-21.0233
-20.2471
-19.3316
-18.3018
-17.1939
-16.0464
-14.8947
-13.767
-12.6839
-11.6598
-10.7039
-9.82206
-9.01749
-8.29037
-7.63759
-7.05308
-6.52948
-6.05951
-5.6367
-5.25546
-4.91093
-4.59864
-4.31428
-4.05369
-3.81294
-3.58874
-3.37892
-3.18238
-2.99877
-2.82803
-2.67014
-2.52497
-2.39231
-2.27191
-2.16351
-2.06682
-1.9814
-1.90656
-1.84137
-1.78478
-1.73577
-1.69345
-1.65704
-1.62588
-1.59937
-1.57699
-1.55823
-1.54264
-1.52977
-1.51928
-1.51083
-1.50417
-1.49904
-1.49518
-1.49238
-1.49041
-1.48911
-1.48829
-1.48794
-23.2646
-23.1623
-22.9493
-22.6101
-22.1252
-21.4772
-20.6578
-19.6769
-18.5652
-17.3682
-16.1337
-14.9032
-13.7084
-12.5707
-11.5036
-10.5154
-9.6113
-8.79379
-8.06269
-7.41355
-6.83803
-6.32646
-5.87002
-5.46127
-5.09413
-4.7636
-4.46506
-4.19394
-3.94568
-3.71583
-3.50065
-3.29786
-3.10678
-2.92752
-2.76044
-2.60581
-2.46366
-2.33384
-2.21619
-2.11056
-2.01677
-1.93451
-1.8631
-1.80145
-1.74835
-1.70268
-1.66347
-1.62994
-1.60145
-1.57742
-1.55733
-1.54069
-1.52703
-1.51592
-1.50699
-1.49994
-1.49454
-1.49053
-1.48768
-1.48573
-1.48447
-1.48371
-1.48325
-1.48309
-23.7476
-23.652
-23.4497
-23.12
-22.6354
-21.969
-21.105
-20.0513
-18.846
-17.5477
-16.2159
-14.8993
-13.6331
-12.4386
-11.3275
-10.3068
-9.38051
-8.55069
-7.81728
-7.17442
-6.61074
-6.11367
-5.67267
-5.27941
-4.92746
-4.61189
-4.32804
-4.07111
-3.83614
-3.61799
-3.41218
-3.21638
-3.03047
-2.85525
-2.69157
-2.54006
-2.40085
-2.2738
-2.15884
-2.05591
-1.965
-1.886
-1.81823
-1.76037
-1.71099
-1.66882
-1.63287
-1.60231
-1.57656
-1.55508
-1.53735
-1.52289
-1.51123
-1.50191
-1.49457
-1.48895
-1.48484
-1.48199
-1.48016
-1.47912
-1.47859
-1.47841
-1.47832
-1.47837
-24.2391
-24.1533
-23.9677
-23.6555
-23.1794
-22.5004
-21.5911
-20.4562
-19.1431
-17.7297
-16.2899
-14.8801
-13.539
-12.2866
-11.1312
-10.0783
-9.13
-8.28844
-7.55464
-6.92128
-6.3728
-5.89283
-5.46917
-5.09271
-4.75681
-4.45699
-4.18867
-3.94683
-3.72618
-3.52058
-3.32447
-3.13538
-2.95417
-2.78256
-2.62195
-2.47338
-2.33701
-2.21264
-2.10027
-1.99992
-1.91181
-1.83613
-1.77223
-1.71845
-1.67302
-1.63452
-1.60191
-1.57439
-1.55143
-1.53253
-1.51721
-1.50499
-1.49538
-1.48788
-1.48215
-1.47796
-1.47514
-1.47348
-1.47272
-1.47261
-1.47285
-1.47327
-1.47357
-1.47383
-24.7334
-24.6609
-24.4989
-24.2138
-23.757
-23.0734
-22.1196
-20.8935
-19.4557
-17.9113
-16.3523
-14.8425
-13.4241
-12.1138
-10.9147
-9.83012
-8.8603
-8.00724
-7.27513
-6.65522
-6.12587
-5.6657
-5.26121
-4.90268
-4.58342
-4.29994
-4.0479
-3.82199
-3.61676
-3.42472
-3.23858
-3.05567
-2.87849
-2.70993
-2.55196
-2.40614
-2.27257
-2.15076
-2.04084
-1.94291
-1.85741
-1.78511
-1.72537
-1.67599
-1.63472
-1.60003
-1.57085
-1.54638
-1.52623
-1.50994
-1.49706
-1.48712
-1.4796
-1.47395
-1.46981
-1.46704
-1.46552
-1.46507
-1.4654
-1.46627
-1.46731
-1.46836
-1.46905
-1.46954
-25.225
-25.1696
-25.0388
-24.7922
-24.3679
-23.691
-22.6951
-21.3663
-19.7822
-18.0887
-16.3994
-14.7829
-13.2863
-11.9198
-10.678
-9.56318
-8.57224
-7.7071
-6.97886
-6.37739
-5.87183
-5.43409
-5.05043
-4.71078
-4.40834
-4.14161
-3.90651
-3.69726
-3.50869
-3.33151
-3.15558
-2.97795
-2.80387
-2.63773
-2.48188
-2.33868
-2.20789
-2.08849
-1.9809
-1.88517
-1.80197
-1.73307
-1.67787
-1.63328
-1.59639
-1.56562
-1.53991
-1.51847
-1.50111
-1.48745
-1.477
-1.46938
-1.46401
-1.46022
-1.45765
-1.45626
-1.45603
-1.4568
-1.45825
-1.46012
-1.46199
-1.46371
-1.4648
-1.46552
-25.7083
-25.674
-25.5825
-25.3872
-25.0118
-24.3568
-23.324
-21.8786
-20.1202
-18.2576
-16.4273
-14.6978
-13.1238
-11.7049
-10.4217
-9.27862
-8.26704
-7.38778
-6.66563
-6.08902
-5.61284
-5.19979
-4.83843
-4.51846
-4.23247
-3.98273
-3.76518
-3.57308
-3.40264
-3.24204
-3.07658
-2.90277
-2.73064
-2.56624
-2.41187
-2.27122
-2.14334
-2.02615
-1.92078
-1.82697
-1.74557
-1.68007
-1.62992
-1.59061
-1.55826
-1.5315
-1.50929
-1.4908
-1.4762
-1.46517
-1.45715
-1.45187
-1.44871
-1.44679
-1.44571
-1.44566
-1.44671
-1.44871
-1.45129
-1.45422
-1.45695
-1.45936
-1.46085
-1.4618
-26.1781
-26.1686
-26.1251
-25.9952
-25.688
-25.075
-24.0142
-22.4359
-20.4662
-18.4122
-16.4324
-14.5828
-12.9351
-11.47
-10.1463
-8.97807
-7.94657
-7.04852
-6.3347
-5.79155
-5.35147
-4.96453
-4.62674
-4.32717
-4.05644
-3.82382
-3.62452
-3.44966
-3.29908
-3.1575
-3.00281
-2.83051
-2.65894
-2.49569
-2.34196
-2.20395
-2.07928
-1.96397
-1.86076
-1.76864
-1.6882
-1.62606
-1.58171
-1.54829
-1.52058
-1.49788
-1.47919
-1.46349
-1.4516
-1.44319
-1.43755
-1.43466
-1.43379
-1.43374
-1.43406
-1.43526
-1.43757
-1.44082
-1.44457
-1.44858
-1.45221
-1.45533
-1.45723
-1.4584
-26.6294
-26.6484
-26.6613
-26.6116
-26.395
-25.85
-24.7762
-23.0459
-20.8138
-18.5455
-16.4116
-14.4332
-12.7186
-11.2174
-9.85236
-8.66362
-7.61369
-6.68776
-5.9846
-5.48668
-5.09096
-4.72982
-4.41673
-4.1385
-3.88058
-3.66528
-3.48517
-3.32684
-3.19827
-3.07922
-2.93569
-2.76126
-2.58873
-2.42634
-2.272
-2.13698
-2.01616
-1.90212
-1.80117
-1.71053
-1.62972
-1.57091
-1.53342
-1.50668
-1.48353
-1.46494
-1.44979
-1.43661
-1.42737
-1.42162
-1.41825
-1.41778
-1.41934
-1.42118
-1.42273
-1.42508
-1.42864
-1.43316
-1.43808
-1.44322
-1.4478
-1.45166
-1.45396
-1.45534
-27.0576
-27.1084
-27.1854
-27.2313
-27.1306
-26.6864
-25.6231
-23.7195
-21.1531
-18.649
-16.3637
-14.2426
-12.473
-10.9511
-9.53942
-8.33778
-7.27285
-6.30264
-5.61281
-5.17664
-4.83548
-4.49667
-4.20958
-3.95436
-3.70473
-3.5073
-3.34796
-3.20403
-3.10015
-3.00872
-2.87705
-2.69469
-2.51977
-2.35856
-2.20163
-2.07038
-1.95455
-1.84061
-1.74231
-1.65317
-1.56982
-1.51432
-1.48529
-1.46623
-1.44726
-1.43281
-1.4213
-1.41019
-1.40356
-1.40054
-1.39926
-1.40127
-1.40546
-1.40921
-1.41173
-1.41511
-1.41992
-1.42573
-1.43184
-1.43815
-1.44374
-1.44835
-1.45105
-1.45261
-27.4589
-27.5439
-27.6921
-27.8482
-27.8908
-27.5884
-26.5712
-24.4726
-21.4676
-18.712
-16.2907
-14.0026
-12.1973
-10.6781
-9.20556
-8.00355
-6.93109
-5.88822
-5.21551
-4.86439
-4.59065
-4.26517
-4.00621
-3.77728
-3.52798
-3.34993
-3.21416
-3.08001
-3.00428
-2.9479
-2.82927
-2.62984
-2.45156
-2.29301
-2.1301
-2.00413
-1.89529
-1.77921
-1.68449
-1.59734
-1.50794
-1.45586
-1.43759
-1.42752
-1.41182
-1.4016
-1.39397
-1.38418
-1.38018
-1.38009
-1.38053
-1.38511
-1.39224
-1.39795
-1.40105
-1.40532
-1.41142
-1.41853
-1.42586
-1.43336
-1.44005
-1.44542
-1.4485
-1.45022
-27.8299
-27.951
-28.1755
-28.4553
-28.6701
-28.5588
-27.6407
-25.3289
-21.7316
-18.7222
-16.2005
-13.7005
-11.8905
-10.4097
-8.84561
-7.6643
-6.5995
-5.43626
-4.78718
-4.55399
-4.36412
-4.03381
-3.80718
-3.61091
-3.34826
-3.19307
-3.08591
-2.95265
-2.90971
-2.89907
-2.79568
-2.56468
-2.38338
-2.23094
-2.05616
-1.9382
-1.83968
-1.71729
-1.62804
-1.54426
-1.44314
-1.39486
-1.39071
-1.39134
-1.37708
-1.37136
-1.36814
-1.35843
-1.35722
-1.36044
-1.362
-1.36927
-1.37979
-1.38756
-1.39066
-1.39567
-1.40313
-1.41159
-1.42013
-1.42885
-1.43677
-1.44289
-1.44632
-1.44814
-28.1681
-28.3259
-28.6304
-29.045
-29.4605
-29.5981
-28.8553
-26.3243
-21.9039
-18.665
-16.1107
-13.317
-11.5517
-10.1641
-8.44887
-7.3237
-6.29551
-4.93344
-4.32036
-4.25103
-4.1666
-3.79838
-3.61265
-3.46082
-3.16166
-3.03643
-2.96676
-2.81848
-2.81485
-2.86511
-2.78105
-2.49561
-2.31422
-2.1746
-1.97766
-1.87247
-1.78973
-1.65354
-1.57329
-1.49584
-1.37391
-1.33047
-1.34519
-1.35877
-1.34268
-1.34209
-1.3443
-1.33263
-1.33464
-1.34186
-1.34347
-1.35366
-1.36825
-1.37825
-1.38045
-1.38609
-1.39506
-1.4049
-1.41465
-1.42459
-1.43391
-1.44076
-1.44451
-1.44638
-28.4717
-28.666
-29.0517
-29.6091
-30.2518
-30.7032
-30.2418
-27.5131
-21.9214
-18.5242
-16.0542
-12.8212
-11.1801
-9.96974
-7.99556
-6.98565
-6.04623
-4.35865
-3.80555
-3.96303
-4.01314
-3.55044
-3.42237
-3.33564
-2.96146
-2.87964
-2.86258
-2.67206
-2.7174
-2.84948
-2.7923
-2.41658
-2.24284
-2.12785
-1.89111
-1.80678
-1.74862
-1.58558
-1.52057
-1.45507
-1.29785
-1.26159
-1.30177
-1.33134
-1.30783
-1.31375
-1.32323
-1.30624
-1.31239
-1.32479
-1.32467
-1.33818
-1.35778
-1.37032
-1.37026
-1.37648
-1.38724
-1.39848
-1.4094
-1.42055
-1.43153
-1.43906
-1.44304
-1.4449
-28.7397
-28.969
-29.4348
-30.1388
-31.0308
-31.8656
-31.8287
-28.9782
-21.6873
-18.2829
-16.0867
-12.1646
-10.775
-9.87086
-7.45171
-6.65415
-5.89308
-3.67892
-3.23151
-3.69975
-3.92502
-3.27513
-3.23564
-3.24875
-2.73657
-2.72224
-2.78272
-2.50505
-2.61428
-2.85629
-2.83955
-2.31795
-2.16784
-2.09702
-1.79089
-1.74094
-1.72128
-1.50938
-1.4702
-1.42655
-1.21125
-1.18693
-1.26144
-1.31117
-1.27114
-1.28624
-1.3061
-1.27835
-1.29038
-1.30988
-1.30512
-1.32267
-1.34857
-1.36417
-1.35978
-1.36676
-1.37971
-1.39235
-1.40437
-1.41666
-1.42967
-1.43779
-1.44191
-1.44368
-28.9718
-29.2339
-29.7762
-30.6257
-31.7822
-33.0697
-33.6427
-30.8446
-21.0572
-17.9251
-16.2974
-11.2716
-10.3364
-9.93441
-6.762
-6.3332
-5.89833
-2.84378
-2.58618
-3.47333
-3.93232
-2.9481
-3.05154
-3.22055
-2.46944
-2.56382
-2.74165
-2.30482
-2.50173
-2.89
-2.93763
-2.18483
-2.08777
-2.0921
-1.66825
-1.67479
-1.71521
-1.41846
-1.42248
-1.41722
-1.10841
-1.10514
-1.22544
-1.30128
-1.23028
-1.25944
-1.29469
-1.24752
-1.26855
-1.29815
-1.28408
-1.30696
-1.34084
-1.36037
-1.34858
-1.35682
-1.37255
-1.38653
-1.39956
-1.41283
-1.42844
-1.43697
-1.44108
-1.44271
-29.1684
-29.4602
-30.073
-31.0619
-32.4886
-34.2907
-35.7024
-33.299
-19.8179
-17.4379
-16.8233
-10.0259
-9.86544
-10.2599
-5.83997
-6.02677
-6.15376
-1.77724
-1.85879
-3.29779
-4.07749
-2.53139
-2.86918
-3.28157
-2.1331
-2.40427
-2.76112
-2.05269
-2.37573
-2.95501
-3.1081
-1.99483
-2.00144
-2.12832
-1.5098
-1.60827
-1.74166
-1.30275
-1.37774
-1.43732
-0.980799
-1.01502
-1.19527
-1.3059
-1.18164
-1.23322
-1.29166
-1.2115
-1.24685
-1.29111
-1.26042
-1.29089
-1.33482
-1.35974
-1.33596
-1.34659
-1.36589
-1.38104
-1.39495
-1.40893
-1.42796
-1.43661
-1.44053
-1.44194
-29.3307
-29.6483
-30.3237
-31.4406
-33.1313
-35.4937
-38.009
-36.6165
-17.6612
-16.8162
-17.8666
-8.2535
-9.36598
-10.9923
-4.55513
-5.73892
-6.79199
-0.366838
-1.04346
-3.18779
-4.42002
-1.96815
-2.6882
-3.47651
-1.68724
-2.24412
-2.87291
-1.72126
-2.2327
-3.05473
-3.38207
-1.71517
-1.90828
-2.22815
-1.29552
-1.54156
-1.81703
-1.14716
-1.33631
-1.50172
-0.815789
-0.915982
-1.17253
-1.33089
-1.11977
-1.20755
-1.30092
-1.16696
-1.22532
-1.29096
-1.23245
-1.27434
-1.33076
-1.36342
-1.32089
-1.33605
-1.35989
-1.3759
-1.39056
-1.40478
-1.42842
-1.4367
-1.44022
-1.44137
-29.4602
-29.7993
-30.5277
-31.7565
-33.6921
-36.633
-40.5313
-41.1959
-14.1486
-16.0684
-19.7172
-5.69971
-8.84662
-12.338
-2.71644
-5.47409
-8.00097
1.55077
-0.145062
-3.15595
-5.04276
-1.17571
-2.50958
-3.86927
-1.07307
-2.0851
-3.12234
-1.27113
-2.07087
-3.19004
-3.80386
-1.29884
-1.80893
-2.42387
-0.996247
-1.47538
-1.9648
-0.929619
-1.29861
-1.63147
-0.595042
-0.808636
-1.15869
-1.38442
-1.0367
-1.18256
-1.328
-1.10899
-1.20416
-1.30077
-1.19769
-1.25737
-1.32882
-1.37299
-1.3019
-1.32529
-1.35482
-1.37113
-1.38643
-1.40009
-1.43011
-1.43724
-1.44012
-1.44097
-29.5589
-29.915
-30.6858
-32.0066
-34.1546
-37.6532
-43.1845
-47.6055
-8.6676
-15.2247
-22.7803
-2.00032
-8.32406
-14.5852
-0.0516139
-5.23773
-10.0418
4.20854
0.811921
-3.20842
-6.05996
-0.0371164
-2.33675
-4.54927
-0.206881
-1.93107
-3.57241
-0.646497
-1.89244
-3.35688
-4.43577
-0.679928
-1.70611
-2.76063
-0.570437
-1.41131
-2.21779
-0.618796
-1.26524
-1.85587
-0.292402
-0.695848
-1.15467
-1.47767
-0.921175
-1.15872
-1.38065
-1.0306
-1.18387
-1.32484
-1.15258
-1.24033
-1.32904
-1.39066
-1.27688
-1.31462
-1.35101
-1.36671
-1.38265
-1.39451
-1.43344
-1.43818
-1.44021
-1.44074
-29.6292
-29.9977
-30.7998
-32.19
-34.5059
-38.493
-45.8015
-56.6404
-0.377542
-14.3487
-27.6076
3.35332
-7.82773
-18.1275
3.81777
-5.03729
-13.2701
7.93259
1.77084
-3.33783
-7.62758
1.60919
-2.17715
-5.63878
1.02783
-1.78918
-4.30884
0.230348
-1.70678
-3.54286
-5.36412
0.232301
-1.60571
-3.30008
0.0397925
-1.3523
-2.62095
-0.171179
-1.2371
-2.21487
0.128744
-0.584116
-1.16009
-1.62587
-0.757591
-1.13702
-1.46941
-0.921996
-1.16536
-1.36896
-1.09213
-1.22405
-1.3312
-1.41943
-1.24292
-1.30462
-1.34888
-1.36263
-1.37942
-1.38754
-1.43902
-1.43946
-1.44049
-1.44069
-29.6736
-30.05
-30.8724
-32.3082
-34.7388
-39.0925
-48.094
-69.3933
11.8555
-13.5519
-34.9342
11.0558
-7.40617
-23.4914
9.40561
-4.88373
-18.1618
13.171
2.62583
-3.51312
-9.95606
3.98162
-2.04421
-7.30154
2.78975
-1.67153
-5.44582
1.46577
-1.53488
-3.72239
-6.70666
1.56029
-1.51832
-4.12458
0.913301
-1.30341
-3.23449
0.472262
-1.21567
-2.76186
0.718711
-0.485472
-1.17228
-1.8495
-0.524831
-1.11924
-1.6084
-0.769835
-1.15024
-1.44079
-1.00947
-1.21016
-1.33467
-1.4634
-1.19606
-1.29633
-1.34893
-1.3588
-1.37706
-1.3785
-1.44767
-1.44095
-1.44099
-1.44089
-29.6947
-30.075
-30.9071
-32.3651
-34.8529
-39.4044
-49.6047
-87.3382
29.5344
-13.0122
-45.7183
22.0351
-7.13512
-31.3676
17.3947
-4.79351
-25.3413
20.5283
3.19963
-3.66562
-13.3257
7.36958
-1.95985
-9.75237
5.29049
-1.59728
-7.13239
3.20289
-1.41531
-3.85037
-8.62143
3.46633
-1.46096
-5.34173
2.1553
-1.27258
-4.13741
1.38997
-1.20317
-3.56689
1.54543
-0.419837
-1.18475
-2.17571
-0.194763
-1.10818
-1.81587
-0.556108
-1.14088
-1.55007
-0.895118
-1.20121
-1.3379
-1.52778
-1.13078
-1.2912
-1.3515
-1.35484
-1.37585
-1.36624
-1.46029
-1.44221
-1.44155
-1.44115
)
;

boundaryField
{
    left
    {
        type            calculated;
        value           nonuniform List<scalar> 
32
(
-20.1557
-20.234
-20.3829
-20.5939
-20.8598
-21.174
-21.5304
-21.9232
-22.3469
-22.7959
-23.2646
-23.7476
-24.2391
-24.7334
-25.225
-25.7083
-26.1781
-26.6294
-27.0576
-27.4589
-27.8299
-28.1681
-28.4717
-28.7397
-28.9718
-29.1684
-29.3307
-29.4602
-29.5589
-29.6292
-29.6736
-29.6947
)
;
    }
    right
    {
        type            calculated;
        value           nonuniform List<scalar> 
32
(
-1.52102
-1.51988
-1.51774
-1.51477
-1.51113
-1.50699
-1.50248
-1.49773
-1.49285
-1.48794
-1.48309
-1.47837
-1.47383
-1.46954
-1.46552
-1.4618
-1.4584
-1.45534
-1.45261
-1.45022
-1.44814
-1.44638
-1.4449
-1.44368
-1.44271
-1.44194
-1.44137
-1.44097
-1.44074
-1.44069
-1.44089
-1.44115
)
;
    }
    interface
    {
        type            calculated;
        value           nonuniform List<scalar> 
64
(
-29.6998
-30.0809
-30.9154
-32.3788
-34.8807
-39.4838
-50.0951
-97.8195
39.9489
-12.8338
-52.1098
28.4762
-7.04868
-36.0313
22.0866
-4.76671
-29.5914
24.8232
3.38884
-3.72473
-15.3108
9.35853
-1.93318
-11.2052
6.75569
-1.57392
-8.13409
4.21734
-1.37473
-3.8944
-9.74445
4.58692
-1.44238
-6.06364
2.88341
-1.26288
-4.67238
1.92854
-1.19947
-4.04382
2.02771
-0.398335
-1.18994
-2.36831
-0.0013945
-1.10474
-1.93929
-0.431271
-1.13798
-1.61543
-0.828651
-1.19834
-1.33919
-1.5658
-1.09273
-1.28961
-1.35342
-1.35274
-1.37554
-1.35912
-1.46769
-1.44269
-1.4418
-1.44123
)
;
    }
    bottom
    {
        type            calculated;
        value           nonuniform List<scalar> 
64
(
-20.1352
-20.0386
-19.8465
-19.561
-19.1858
-18.7261
-18.1885
-17.5814
-16.9149
-16.1999
-15.4485
-14.6727
-13.8844
-13.0947
-12.3137
-11.5499
-10.8108
-10.1018
-9.42715
-8.78966
-8.19083
-7.63112
-7.11013
-6.62678
-6.17948
-5.76632
-5.38519
-5.03386
-4.71014
-4.41188
-4.13709
-3.88393
-3.65072
-3.43601
-3.23848
-3.05698
-2.8905
-2.7381
-2.59895
-2.47224
-2.35723
-2.25318
-2.15938
-2.07512
-1.99971
-1.93247
-1.87274
-1.81988
-1.77329
-1.73239
-1.69664
-1.66554
-1.63862
-1.61545
-1.59564
-1.57883
-1.56471
-1.55298
-1.54339
-1.53573
-1.52983
-1.52552
-1.52271
-1.52133
)
;
    }
    defaultFaces
    {
        type            empty;
    }
}


// ************************************************************************* //
