/*--------------------------------*- C++ -*----------------------------------*\
| =========                 |                                                 |
| \\      /  F ield         | OpenFOAM: The Open Source CFD Toolbox           |
|  \\    /   O peration     | Version:  5.x                                   |
|   \\  /    A nd           | Web:      www.OpenFOAM.org                      |
|    \\/     M anipulation  |                                                 |
\*---------------------------------------------------------------------------*/
FoamFile
{
    version     2.0;
    format      ascii;
    class       volScalarField;
    location    "10";
    object      gradTx;
}
// * * * * * * * * * * * * * * * * * * * * * * * * * * * * * * * * * * * * * //

dimensions      [0 -1 0 1 0 0 0];

internalField   nonuniform List<scalar> 
2048
(
0.0222114
0.0663874
0.1098
0.151872
0.191946
0.229293
0.263153
0.292796
0.317599
0.337112
0.351105
0.359583
0.362778
0.361108
0.355135
0.345511
0.33293
0.318089
0.301652
0.284226
0.266344
0.248448
0.230895
0.213954
0.197816
0.182606
0.168391
0.155191
0.14299
0.131741
0.121375
0.111815
0.102975
0.0947737
0.0871366
0.0799995
0.0733099
0.067027
0.0611208
0.0555701
0.050361
0.0454847
0.0409352
0.0367073
0.0327949
0.0291905
0.025884
0.0228631
0.020114
0.0176211
0.0153682
0.0133385
0.011515
0.00988064
0.00841855
0.0071121
0.00594494
0.00490094
0.00396409
0.00311836
0.00234756
0.00163524
0.000964656
0.000318846
0.065867
0.19689
0.325708
0.450628
0.5697
0.680736
0.781437
0.869585
0.943282
1.00116
1.04252
1.06739
1.07649
1.07109
1.0529
1.02387
0.986099
0.941674
0.89258
0.840628
0.787394
0.734196
0.682081
0.631839
0.584028
0.539007
0.496968
0.457961
0.42193
0.388729
0.358153
0.329959
0.303893
0.27971
0.257186
0.23613
0.216387
0.197839
0.180396
0.163998
0.148606
0.134195
0.12075
0.108256
0.0966964
0.086049
0.076284
0.0673652
0.0592506
0.0518945
0.0452483
0.0392621
0.0338853
0.0290677
0.024759
0.0209103
0.0174732
0.0144001
0.0116437
0.00915688
0.00689177
0.00479968
0.00283094
0.000935572
0.108151
0.323353
0.53512
0.740742
0.937011
1.12025
1.28655
1.43208
1.55357
1.64866
1.71617
1.75618
1.76996
1.7597
1.72833
1.67917
1.61574
1.54152
1.45983
1.37366
1.28563
1.19788
1.11212
1.02961
0.95124
0.877568
0.80888
0.74524
0.68653
0.632494
0.582773
0.536953
0.494602
0.455304
0.418688
0.38444
0.352306
0.322094
0.293665
0.266924
0.241813
0.218297
0.196356
0.17597
0.157115
0.139755
0.123841
0.109314
0.0961032
0.0841332
0.0733235
0.0635919
0.0548555
0.0470314
0.0400379
0.0337946
0.0282227
0.0232448
0.0187842
0.014764
0.0111066
0.00773244
0.00455921
0.00150619
0.149346
0.446662
0.739625
1.02464
1.29727
1.55227
1.78393
1.9866
2.15543
2.28691
2.37937
2.433
2.44971
2.43281
2.38653
2.31569
2.2253
2.1203
2.00536
1.88468
1.76188
1.63992
1.5211
1.40712
1.29914
1.19788
1.10366
1.01655
0.936327
0.862613
0.794873
0.732498
0.674859
0.621366
0.571492
0.524802
0.480952
0.439684
0.400814
0.364223
0.329842
0.297634
0.267581
0.239665
0.213858
0.190113
0.168361
0.148519
0.130488
0.114161
0.0994268
0.086171
0.074279
0.0636365
0.0541309
0.0456521
0.0380923
0.0313459
0.0253085
0.0198755
0.0149413
0.010397
0.00612745
0.00202326
0.18961
0.567332
0.940213
1.30395
1.65292
1.98016
2.27789
2.53829
2.75457
2.92194
3.03813
3.10356
3.121
3.09505
3.03148
2.93674
2.81744
2.68006
2.53067
2.37469
2.21677
2.06063
1.90913
1.76433
1.62759
1.49971
1.38106
1.27162
1.17109
1.07889
0.994306
0.916495
0.844614
0.777876
0.7156
0.657232
0.602342
0.550616
0.501837
0.455872
0.412648
0.37214
0.334341
0.299244
0.266819
0.23701
0.209729
0.184867
0.162293
0.141871
0.123456
0.106902
0.0920646
0.078798
0.0669599
0.0564113
0.0470171
0.0386454
0.0311661
0.0244489
0.0183617
0.0127682
0.00752049
0.00248176
0.228979
0.685525
1.13732
1.57959
2.00557
2.40641
2.77184
3.09136
3.35582
3.55879
3.69744
3.77255
3.78804
3.75008
3.66627
3.54483
3.39413
3.22228
3.03681
2.84441
2.65073
2.46026
2.27633
2.10126
1.93654
1.78302
1.641
1.5104
1.39076
1.28131
1.1811
1.08902
1.00397
0.924963
0.851149
0.78186
0.716595
0.654994
0.596819
0.541929
0.490266
0.441824
0.396623
0.354674
0.315954
0.280396
0.247893
0.218303
0.191466
0.16721
0.145359
0.125737
0.108166
0.0924724
0.078484
0.0660341
0.0549618
0.045111
0.036328
0.028459
0.0213472
0.0148307
0.00872881
0.00287846
0.267374
0.801061
1.33084
1.8518
2.3561
2.83275
3.26847
3.64937
3.96328
4.20181
4.36152
4.44382
4.45417
4.40073
4.29318
4.1418
3.9568
3.748
3.52448
3.29425
3.06402
2.83895
2.62278
2.41798
2.22607
2.04784
1.88354
1.73294
1.59542
1.47
1.35542
1.25027
1.15317
1.06287
0.978378
0.898912
0.823916
0.752999
0.685911
0.62252
0.562789
0.50675
0.454464
0.405975
0.36127
0.320273
0.28285
0.248825
0.218002
0.190172
0.165129
0.142665
0.122573
0.104649
0.0886926
0.0745096
0.0619149
0.0507306
0.0407821
0.0318945
0.023888
0.016577
0.00974745
0.00321151
0.304602
0.913437
1.52015
2.12016
2.70466
3.26025
3.7699
4.21537
4.58063
4.85484
5.03399
5.12054
5.12202
5.04908
4.91389
4.72892
4.50638
4.25785
3.99406
3.72443
3.45674
3.19678
2.94857
2.71461
2.49632
2.29436
2.10885
1.93942
1.78529
1.6452
1.51756
1.40059
1.29255
1.19195
1.09761
1.00869
0.924573
0.844868
0.769323
0.697819
0.630357
0.567024
0.507944
0.453206
0.402815
0.356681
0.314638
0.276467
0.241931
0.210786
0.182791
0.157709
0.135305
0.115345
0.0975993
0.0818483
0.0678837
0.0555084
0.0445299
0.0347549
0.0259825
0.0180054
0.010575
0.00348016
0.340365
1.02183
1.70416
2.38365
3.05076
3.68937
4.27778
4.79211
5.21124
5.52135
5.71799
5.80529
5.79357
5.69662
5.52946
5.30697
5.04341
4.75216
4.44568
4.13495
3.82885
3.53378
3.25381
2.99133
2.74752
2.52282
2.31718
2.13012
1.96064
1.80723
1.6679
1.54039
1.42255
1.31261
1.20924
1.11153
1.01888
0.930884
0.847303
0.768042
0.693148
0.622785
0.557168
0.496452
0.440664
0.389692
0.343326
0.301297
0.263319
0.229109
0.198395
0.170914
0.146401
0.124596
0.105237
0.0880783
0.0728907
0.0594613
0.0475831
0.037048
0.0276355
0.019119
0.0112129
0.00368443
0.374268
1.12514
1.88127
2.64061
3.39326
4.12002
4.7934
5.38212
5.85836
6.20461
6.41631
6.50014
6.47022
6.34424
6.14048
5.87637
5.56814
5.23101
4.87926
4.52564
4.18024
3.84992
3.53864
3.24841
2.98001
2.73358
2.5089
2.30536
2.12182
1.95649
1.80688
1.67016
1.54367
1.42534
1.3137
1.20784
1.10719
1.01135
0.920128
0.833431
0.751363
0.674193
0.602262
0.535818
0.474913
0.419401
0.36901
0.323407
0.28225
0.24522
0.212013
0.182343
0.155921
0.132456
0.111654
0.0932412
0.0769698
0.0626157
0.0499613
0.038788
0.0288567
0.0199243
0.0116645
0.00382494
0.405827
1.22199
2.04945
2.8888
3.73036
4.55159
5.31779
5.98792
6.52526
6.90774
7.13138
7.20667
7.1528
6.9923
6.74711
6.43717
6.08062
5.69434
5.29458
4.8962
4.51069
4.14518
3.80323
3.48618
3.19421
2.92708
2.68442
2.46554
2.26922
2.0934
1.93502
1.79047
1.65649
1.53066
1.41147
1.29802
1.18984
1.08661
0.988097
0.894252
0.805225
0.721419
0.643357
0.571418
0.505674
0.445921
0.391804
0.342909
0.298832
0.259216
0.223732
0.192075
0.163935
0.138989
0.116909
0.0973887
0.0801639
0.0650053
0.0516897
0.0399933
0.029659
0.0204304
0.0119351
0.00390278
0.43449
1.31077
2.20626
3.1254
4.05958
4.98289
5.85173
6.61213
7.21537
7.63384
7.86536
7.92597
7.84159
7.64066
7.34909
6.98922
6.58074
6.14195
5.69126
5.24621
4.81993
4.41957
4.04783
3.70506
3.39063
3.10385
2.84421
2.61108
2.40325
2.21843
2.05287
1.90195
1.76161
1.62914
1.50301
1.38248
1.26722
1.15698
1.05152
0.950787
0.854971
0.764641
0.680589
0.603371
0.533067
0.46938
0.41184
0.359932
0.313185
0.271206
0.233648
0.200195
0.170521
0.144272
0.121072
0.100581
0.0825221
0.0666686
0.0527973
0.0406854
0.0300576
0.0206483
0.0120314
0.00391945
0.459656
1.38971
2.34891
3.34699
4.37777
5.41217
6.39586
7.25765
7.93243
8.38601
8.62008
8.65866
8.53629
8.2887
7.94588
7.53215
7.06837
6.57367
6.06886
5.5751
5.10762
4.67312
4.27277
3.90561
3.56993
3.26449
2.98883
2.74244
2.52429
2.33205
2.16105
2.00528
1.8597
1.72136
1.58882
1.46161
1.33967
1.22279
1.11071
1.00333
0.900848
0.804036
0.714083
0.631793
0.557221
0.489915
0.429262
0.37462
0.325439
0.281308
0.241866
0.206794
0.175764
0.148383
0.124218
0.102884
0.0840978
0.0676473
0.0533153
0.0408875
0.0300691
0.0205905
0.0119612
0.00387694
0.480703
1.45695
2.47432
3.54965
4.68101
5.83703
6.95065
7.92783
8.68068
9.16736
9.39707
9.40483
9.23603
8.93534
8.53661
8.06549
7.54341
6.98937
6.42682
5.88217
5.37341
4.90591
4.47848
4.08849
3.73283
3.40968
3.11885
2.86007
2.63272
2.43468
2.2602
2.10122
1.95146
1.8079
1.66937
1.5358
1.40752
1.28437
1.16599
1.0522
0.943117
0.839772
0.743949
0.656794
0.578267
0.507676
0.444227
0.387124
0.335735
0.289645
0.248492
0.211965
0.179748
0.151409
0.126428
0.104368
0.0849472
0.0679848
0.0532757
0.0406235
0.0297111
0.02027
0.0117335
0.00377781
0.497023
1.51061
2.57925
3.72896
4.9646
6.25428
7.51646
8.62672
9.46503
9.98099
10.1975
10.164
9.93926
9.57904
9.12024
8.58869
8.00594
7.3891
6.76449
6.16653
5.61691
5.11817
4.66551
4.25449
3.88019
3.54017
3.23489
2.96442
2.72884
2.52674
2.351
2.19058
2.0376
1.88937
1.74513
1.60537
1.47108
1.34203
1.21766
1.09772
0.982057
0.872006
0.770271
0.678475
0.596344
0.522818
0.4569
0.397607
0.344214
0.296344
0.253636
0.2158
0.182559
0.153437
0.127789
0.105107
0.0851274
0.0677247
0.0527108
0.039917
0.0290009
0.0197006
0.0113585
0.00362539
0.508054
1.54887
2.66043
3.88012
5.223
6.6598
8.09345
9.35937
10.2913
10.8299
11.022
10.9353
10.6438
10.2179
9.69553
9.10113
8.4563
7.77318
7.0811
6.42702
5.83774
5.31024
4.83453
4.40455
4.01301
3.65674
3.33763
3.05596
2.81283
2.60853
2.43421
2.27428
2.11885
1.96633
1.81651
1.67061
1.53062
1.39606
1.26604
1.14025
1.01797
0.900869
0.793094
0.696929
0.6116
0.535504
0.467457
0.40624
0.351023
0.301532
0.257408
0.218383
0.184276
0.154558
0.128392
0.105176
0.0846948
0.0669096
0.0516522
0.0387908
0.027956
0.0188966
0.0108474
0.00342393
0.513318
1.57014
2.71467
3.99804
5.44978
7.04827
8.68146
10.1322
11.1665
11.7165
11.8707
11.7171
11.3465
10.8497
10.2612
9.60205
8.89525
8.14239
7.37565
6.66211
6.03554
5.48272
4.98626
4.53974
4.13239
3.76018
3.42778
3.13516
2.88476
2.68027
2.51067
2.35334
2.19593
2.03934
1.88393
1.73172
1.58639
1.44675
1.31138
1.18016
1.05119
0.926459
0.812411
0.712237
0.624196
0.545897
0.476081
0.413201
0.3563
0.305336
0.259916
0.219793
0.184972
0.154865
0.128335
0.104651
0.0837036
0.0655807
0.0501303
0.0372662
0.0265929
0.0178727
0.0102128
0.00317881
0.51246
1.5731
2.73908
4.07753
5.63761
7.4129
9.27982
10.9536
12.0992
12.6427
12.7432
12.5076
12.0435
11.472
10.8162
10.0905
9.32411
8.49821
7.64679
6.86972
6.21011
5.63652
5.12147
4.66128
4.2396
3.85122
3.50613
3.20255
2.94447
2.74197
2.58136
2.42897
2.26948
2.10893
1.94777
1.78881
1.6386
1.49438
1.35393
1.21789
1.08213
0.948824
0.828142
0.724481
0.634318
0.554162
0.482961
0.418677
0.36018
0.307879
0.261271
0.220097
0.184708
0.154454
0.127723
0.103607
0.0822041
0.0637766
0.0481745
0.0353623
0.0249271
0.0166445
0.00946877
0.00289661
0.505273
1.55686
2.73122
4.11348
5.7783
7.74503
9.88693
11.8346
13.1
13.6084
13.6384
13.3048
12.7294
12.0823
11.3595
10.5649
9.74497
8.84309
7.89263
7.04702
6.36148
5.773
5.24085
4.77054
4.3361
3.93045
3.57354
3.25877
2.99151
2.7934
2.64748
2.50257
2.34
2.17559
2.00841
1.84182
1.68745
1.53925
1.39382
1.25392
1.11127
0.967934
0.84011
0.733754
0.642192
0.56045
0.488296
0.422869
0.362775
0.309283
0.261588
0.219346
0.183531
0.153425
0.126669
0.102117
0.0802405
0.0615334
0.0458135
0.0330956
0.0229724
0.0152286
0.0086308
0.00258513
0.491727
1.52099
2.68931
4.10116
5.86288
8.0337
10.4996
12.7898
14.1822
14.611
14.5545
14.1071
13.3972
12.6785
11.891
11.0228
10.161
9.18091
8.11038
7.19009
6.49019
5.89421
5.34479
4.86909
4.42361
3.99817
3.63104
3.30467
3.02507
2.83394
2.71055
2.57587
2.40774
2.23979
2.06632
1.89049
1.73314
1.5817
1.43106
1.28883
1.13924
0.983652
0.848005
0.74018
0.648103
0.564879
0.492292
0.425996
0.364172
0.30967
0.260993
0.217569
0.181463
0.151889
0.125304
0.100246
0.0778492
0.0588847
0.043076
0.0304795
0.0207399
0.0136434
0.00771648
0.00225337
0.471975
1.46562
2.61239
4.0365
5.88188
8.26514
11.112
13.8391
15.3627
15.6432
15.4896
14.9141
14.0372
13.259
12.4114
11.4596
10.5767
9.51764
8.2959
7.29359
6.59756
6.00307
5.43303
4.95877
4.50427
4.0541
3.67986
3.34149
3.04379
2.86248
2.77256
2.65103
2.4725
2.30202
2.12204
1.93425
1.77595
1.62217
1.46539
1.32334
1.1669
0.995675
0.85135
0.743948
0.652422
0.567507
0.49517
0.42831
0.364408
0.309163
0.259633
0.214766
0.178503
0.149968
0.123774
0.0980494
0.0750557
0.0558626
0.0399917
0.0275235
0.0182377
0.0119098
0.00674564
0.00191129
0.446353
1.39147
2.50047
3.91645
5.82565
8.42238
11.7142
15.0088
16.6635
16.6903
16.4421
15.7275
14.6354
13.8237
12.9234
11.8679
10.9985
9.86213
8.44296
7.3502
6.68619
6.10379
5.50418
5.04179
4.5808
4.09709
3.72159
3.37108
3.0456
2.87713
2.83624
2.73079
2.53331
2.36285
2.17641
1.97202
1.81626
1.6613
1.49619
1.35834
1.19539
1.00346
0.849446
0.745359
0.655642
0.568283
0.497173
0.430113
0.363442
0.30789
0.257688
0.210901
0.174606
0.147808
0.122254
0.0955656
0.0718729
0.052499
0.0365934
0.0242325
0.0154689
0.0100525
0.00574068
0.00156953
0.415371
1.29981
2.3546
3.73932
5.68493
8.48487
12.2897
16.3348
18.1132
17.7263
17.412
16.553
15.1721
14.3749
13.4327
12.2348
11.4357
10.2273
8.54232
7.35014
6.76062
6.20228
5.55486
5.121
4.65686
4.12453
3.75833
3.39621
3.02747
2.875
2.90529
2.81869
2.58805
2.42304
2.23067
2.00199
1.8547
1.7
1.5222
1.39499
1.2263
1.00611
0.841314
0.744895
0.658429
0.56697
0.498585
0.431786
0.361118
0.306001
0.255399
0.205882
0.169684
0.145584
0.120953
0.0928041
0.0682991
0.0488275
0.0329185
0.020605
0.0124304
0.00810169
0.00472692
0.00123903
0.379684
1.19244
2.17692
3.50512
5.45154
8.42846
12.8122
17.865
19.7498
18.7087
18.4025
17.4027
15.6178
14.9187
13.9492
12.5395
11.9011
10.6316
8.58035
7.28039
6.82819
6.30677
5.57863
5.20025
4.73748
4.13155
3.793
3.421
2.98514
2.85185
2.98484
2.91941
2.63281
2.48377
2.28676
2.02125
1.89233
1.73968
1.54122
1.43484
1.26181
1.00226
0.825634
0.743302
0.661677
0.563046
0.499761
0.433833
0.357104
0.303677
0.253085
0.199546
0.163582
0.143516
0.120124
0.0897333
0.0643169
0.044887
0.0290123
0.0166321
0.0091112
0.00609488
0.00373258
0.000930476
0.340059
1.07157
1.97064
3.21582
5.11939
8.2258
13.2411
19.6631
21.6242
19.5704
19.4229
18.2983
15.9293
15.4674
14.4897
12.7494
12.4129
11.1009
8.53728
7.12406
6.90013
6.42855
5.56438
5.28496
4.82971
4.10999
3.8297
3.45146
2.91266
2.80155
3.08189
3.03911
2.66106
2.54692
2.34764
2.02522
1.93082
1.78248
1.54967
1.48001
1.30492
0.989806
0.800673
0.741706
0.666587
0.555555
0.501174
0.43693
0.350805
0.30116
0.251184
0.191631
0.156072
0.141887
0.120083
0.086261
0.0598938
0.0407246
0.0249311
0.0122946
0.00548922
0.00408027
0.00278848
0.000653688
0.297336
0.939779
1.73989
2.87555
4.68544
7.84746
13.5152
21.8139
23.8049
20.2101
20.4932
19.275
16.0427
16.0419
15.0803
12.8143
12.9966
11.6707
8.38487
6.85958
6.99286
6.58296
5.49422
5.38297
4.94347
4.04689
3.87426
3.49611
2.80201
2.7156
3.20594
3.186
2.66256
2.61554
2.41776
2.00698
1.97284
1.83158
1.54197
1.53341
1.35967
0.965723
0.764222
0.741742
0.67476
0.542912
0.503489
0.442006
0.341257
0.298791
0.250292
0.181744
0.14683
0.141063
0.121214
0.0822096
0.0549866
0.0363998
0.0207453
0.00756061
0.00152896
0.00212058
0.00192724
0.000416957
0.252382
0.799795
1.48953
2.49058
4.1509
7.26414
13.5447
24.4284
26.384
20.479
21.6494
20.3872
15.8654
16.6763
15.7604
12.6599
13.6881
12.3889
8.08346
6.46003
7.12956
6.79064
5.34071
5.50571
5.09268
3.92255
3.93504
3.56674
2.64248
2.58242
3.36968
3.37098
2.62187
2.6945
2.50364
1.95624
2.0225
1.89165
1.50976
1.59908
1.4315
0.925683
0.713541
0.745713
0.688317
0.522648
0.507662
0.450332
0.326976
0.297065
0.251211
0.169318
0.13542
0.141517
0.124
0.0772831
0.0495482
0.0319879
0.0165443
0.00238148
-0.00282235
0.000298277
0.00118161
0.000226314
0.206054
0.654417
1.22492
2.06916
3.52226
6.45026
13.2008
27.6504
29.4858
20.1641
22.9517
21.7142
15.2647
17.4226
16.5874
12.1785
14.5375
13.3187
7.57839
5.89257
7.34182
7.07906
5.06334
5.66982
5.29656
3.70803
4.02395
3.67924
2.42004
2.38655
3.5898
3.60854
2.51652
2.79131
2.61459
1.8581
2.08592
1.96939
1.44085
1.68266
1.52753
0.863653
0.645327
0.756752
0.710039
0.491084
0.515085
0.46363
0.305765
0.29671
0.255004
0.153555
0.121282
0.143858
0.129034
0.0710268
0.0435416
0.0275826
0.0124406
-0.00331193
-0.00763893
-0.00127766
0.000581897
8.49131e-05
0.159159
0.506362
0.95163
1.62118
2.81205
5.38938
12.3026
31.664
33.2768
18.9678
24.4946
23.3685
14.054
18.3574
17.6424
11.2178
15.6143
14.5421
6.79566
5.11815
7.67136
7.48446
4.60424
5.89919
5.58138
3.36209
4.15782
3.85442
2.11672
2.10782
3.88788
3.91784
2.31472
2.91728
2.76355
1.69149
2.17204
2.07419
1.318
1.79193
1.65697
0.771396
0.55572
0.779001
0.743549
0.442933
0.52777
0.484214
0.274477
0.298791
0.263047
0.133366
0.103711
0.148858
0.137047
0.0627773
0.0369602
0.0232966
0.0085751
-0.00961403
-0.0130214
-0.00246334
0.000152245
-7.36305e-06
0.112431
0.358152
0.675106
1.15756
2.03916
4.08177
10.6022
36.7021
37.9785
16.4827
26.4199
25.504
11.9755
19.5907
19.0373
9.56747
17.0138
16.1633
5.63686
4.09157
8.17174
8.05422
3.88294
6.22756
5.9823
2.82744
4.36014
4.11891
1.70979
1.72033
4.29123
4.32402
1.97263
3.08886
2.96809
1.42719
2.29349
2.21893
1.11736
1.9376
1.8315
0.637883
0.440359
0.817769
0.793524
0.370823
0.548587
0.515132
0.228729
0.304847
0.277089
0.107295
0.0818558
0.157488
0.148938
0.0516027
0.029857
0.0192594
0.0051227
-0.0166494
-0.0191026
-0.00306973
-9.44531e-05
-5.38327e-05
0.0665033
0.212023
0.400432
0.689551
1.22828
2.55452
7.76567
43.0545
43.8823
12.163
28.9319
28.3259
8.68077
21.2751
20.9224
6.94355
18.8649
18.3117
3.97349
2.7621
8.90976
8.84968
2.79036
6.70168
6.54556
2.02637
4.66328
4.50585
1.17106
1.1915
4.83386
4.85983
1.43112
3.32942
3.25147
1.02563
2.4678
2.42082
0.80667
2.13418
2.06562
0.448623
0.2945
0.879673
0.865947
0.264736
0.581556
0.560335
0.162563
0.317064
0.299296
0.0734367
0.0547093
0.170943
0.165801
0.0362334
0.0223838
0.01561
0.00229878
-0.024578
-0.0260538
-0.00285047
-0.000162979
-6.01743e-05
0.0219042
0.0698646
0.132071
0.2279
0.408351
0.874438
3.3528
51.0773
51.368
5.291
32.3163
32.1007
3.70752
23.6178
23.4954
2.97015
21.3404
21.1455
1.64077
1.07475
9.96644
9.94952
1.18188
7.38502
7.33085
0.855777
5.11114
5.0555
0.466215
0.481042
5.5572
5.56751
0.612132
3.67119
3.64389
0.434263
2.71867
2.70249
0.343256
2.40108
2.37704
0.184932
0.113223
0.972727
0.968414
0.111379
0.632194
0.624847
0.0680584
0.338486
0.332293
0.0293426
0.0211192
0.19067
0.188961
0.0149832
0.0148415
0.0124841
0.000366375
-0.0335998
-0.0340925
-0.00148795
-8.35785e-05
-3.24432e-05
)
;

boundaryField
{
    left
    {
        type            calculated;
        value           uniform 0;
    }
    right
    {
        type            calculated;
        value           uniform 0;
    }
    interface
    {
        type            calculated;
        value           nonuniform List<scalar> 
64
(
0.0219042
0.0698646
0.132071
0.2279
0.408351
0.874438
3.3528
51.0773
51.368
5.291
32.3163
32.1007
3.70752
23.6178
23.4954
2.97015
21.3404
21.1455
1.64077
1.07475
9.96644
9.94952
1.18188
7.38502
7.33085
0.855777
5.11114
5.0555
0.466215
0.481042
5.5572
5.56751
0.612132
3.67119
3.64389
0.434263
2.71867
2.70249
0.343256
2.40108
2.37704
0.184932
0.113223
0.972727
0.968414
0.111379
0.632194
0.624847
0.0680584
0.338486
0.332293
0.0293426
0.0211192
0.19067
0.188961
0.0149832
0.0148415
0.0124841
0.000366375
-0.0335998
-0.0340925
-0.00148795
-8.35785e-05
-3.24432e-05
)
;
    }
    bottom
    {
        type            calculated;
        value           nonuniform List<scalar> 
64
(
0.0222114
0.0663874
0.1098
0.151872
0.191946
0.229293
0.263153
0.292796
0.317599
0.337112
0.351105
0.359583
0.362778
0.361108
0.355135
0.345511
0.33293
0.318089
0.301652
0.284226
0.266344
0.248448
0.230895
0.213954
0.197816
0.182606
0.168391
0.155191
0.14299
0.131741
0.121375
0.111815
0.102975
0.0947737
0.0871366
0.0799995
0.0733099
0.067027
0.0611208
0.0555701
0.050361
0.0454847
0.0409352
0.0367073
0.0327949
0.0291905
0.025884
0.0228631
0.020114
0.0176211
0.0153682
0.0133385
0.011515
0.00988064
0.00841855
0.0071121
0.00594494
0.00490094
0.00396409
0.00311836
0.00234756
0.00163524
0.000964656
0.000318846
)
;
    }
    defaultFaces
    {
        type            empty;
    }
}


// ************************************************************************* //
