/*--------------------------------*- C++ -*----------------------------------*\
| =========                 |                                                 |
| \\      /  F ield         | OpenFOAM: The Open Source CFD Toolbox           |
|  \\    /   O peration     | Version:  5.x                                   |
|   \\  /    A nd           | Web:      www.OpenFOAM.org                      |
|    \\/     M anipulation  |                                                 |
\*---------------------------------------------------------------------------*/
FoamFile
{
    version     2.0;
    format      ascii;
    class       volScalarField;
    location    "10";
    object      T;
}
// * * * * * * * * * * * * * * * * * * * * * * * * * * * * * * * * * * * * * //

dimensions      [0 0 0 1 0 0 0];

internalField   nonuniform List<scalar> 
2048
(
9.85534
9.85604
9.85742
9.85947
9.86216
9.86547
9.86933
9.87369
9.87848
9.88362
9.88901
9.89459
9.90025
9.90592
9.91154
9.91702
9.92233
9.92743
9.93227
9.93685
9.94115
9.94518
9.94892
9.95239
9.9556
9.95857
9.96131
9.96384
9.96616
9.9683
9.97028
9.9721
9.97377
9.97531
9.97673
9.97804
9.97923
9.98033
9.98133
9.98224
9.98307
9.98381
9.98449
9.98509
9.98563
9.98612
9.98655
9.98693
9.98726
9.98755
9.98781
9.98803
9.98823
9.98839
9.98854
9.98866
9.98876
9.98884
9.98891
9.98897
9.98901
9.98904
9.98906
9.98907
9.57178
9.57384
9.57793
9.58402
9.59202
9.60182
9.61329
9.62624
9.64046
9.65572
9.67175
9.6883
9.70511
9.72194
9.73858
9.75484
9.77057
9.78566
9.8
9.81355
9.82627
9.83816
9.84921
9.85947
9.86896
9.87772
9.8858
9.89325
9.90011
9.90644
9.91226
9.91763
9.92257
9.92713
9.93131
9.93516
9.93869
9.94193
9.94488
9.94756
9.95
9.95221
9.95419
9.95598
9.95758
9.959
9.96027
9.96139
9.96237
9.96324
9.96399
9.96465
9.96522
9.96571
9.96613
9.96648
9.96678
9.96703
9.96723
9.96739
9.96752
9.96761
9.96767
9.9677
9.29906
9.30244
9.30917
9.31917
9.33232
9.34845
9.36733
9.38865
9.41208
9.4372
9.4636
9.49083
9.51848
9.54614
9.57347
9.60015
9.62594
9.65065
9.67412
9.69626
9.71704
9.73644
9.75448
9.77119
9.78665
9.80092
9.81408
9.8262
9.83737
9.84765
9.85713
9.86586
9.87391
9.88132
9.88814
9.8944
9.90015
9.90541
9.91022
9.91459
9.91856
9.92215
9.92538
9.92828
9.93088
9.93319
9.93525
9.93706
9.93866
9.94007
9.94129
9.94236
9.94328
9.94407
9.94475
9.94532
9.94581
9.94621
9.94653
9.94679
9.94699
9.94714
9.94724
9.94728
9.03594
9.0406
9.04989
9.06372
9.08191
9.10426
9.13042
9.16
9.1925
9.22736
9.26397
9.30172
9.34
9.37827
9.41603
9.45285
9.48839
9.52239
9.55465
9.58506
9.61355
9.64012
9.6648
9.68765
9.70877
9.72825
9.7462
9.76274
9.77797
9.792
9.80493
9.81684
9.82782
9.83793
9.84723
9.85579
9.86363
9.87082
9.87737
9.88334
9.88876
9.89365
9.89806
9.90201
9.90555
9.90869
9.91149
9.91396
9.91613
9.91803
9.9197
9.92114
9.92239
9.92346
9.92438
9.92515
9.9258
9.92634
9.92678
9.92713
9.9274
9.9276
9.92773
9.92779
8.78136
8.78729
8.79909
8.81667
8.83984
8.86833
8.90172
8.93951
8.98104
9.02559
9.07235
9.12053
9.16934
9.21806
9.26606
9.3128
9.35783
9.40084
9.44159
9.47992
9.5158
9.5492
9.58019
9.60886
9.63533
9.65972
9.68219
9.70288
9.72193
9.73948
9.75564
9.77055
9.78429
9.79694
9.80859
9.8193
9.82913
9.83813
9.84634
9.85381
9.86059
9.86671
9.87221
9.87715
9.88157
9.88549
9.88897
9.89205
9.89475
9.89712
9.89918
9.90098
9.90252
9.90385
9.90499
9.90595
9.90675
9.90741
9.90796
9.90839
9.90872
9.90896
9.90912
9.9092
8.5345
8.54165
8.55592
8.5772
8.60528
8.63987
8.68048
8.72649
8.77709
8.83136
8.8883
8.9469
9.00619
9.06528
9.12338
9.17985
9.23416
9.28592
9.33486
9.38082
9.42374
9.46365
9.50063
9.53479
9.56629
9.59531
9.62201
9.64659
9.66921
9.69005
9.70925
9.72696
9.74328
9.75833
9.77219
9.78493
9.79662
9.80732
9.81709
9.82597
9.83403
9.8413
9.84783
9.85369
9.85892
9.86356
9.86768
9.87131
9.8745
9.87729
9.87973
9.88184
9.88366
9.88522
9.88655
9.88767
9.88861
9.88939
9.89002
9.89052
9.89091
9.89119
9.89137
9.89146
8.29465
8.303
8.31968
8.34459
8.37755
8.41822
8.46607
8.52036
8.58011
8.64421
8.71142
8.78051
8.85029
8.9197
8.98781
9.05386
9.11724
9.17751
9.23437
9.28765
9.33731
9.3834
9.42603
9.46536
9.50159
9.53493
9.56559
9.59379
9.61974
9.64365
9.66568
9.686
9.70475
9.72204
9.73797
9.75261
9.76606
9.77836
9.78959
9.7998
9.80904
9.81738
9.82488
9.83159
9.83756
9.84288
9.84757
9.85171
9.85535
9.85853
9.86129
9.86369
9.86575
9.86752
9.86902
9.87029
9.87135
9.87222
9.87293
9.8735
9.87393
9.87424
9.87445
9.87455
8.06124
8.07076
8.08979
8.11826
8.15604
8.20278
8.25792
8.32059
8.38965
8.46374
8.54137
8.62105
8.70138
8.78111
8.85917
8.93467
9.00695
9.0755
9.14
9.20031
9.25639
9.30833
9.35629
9.40048
9.44112
9.47849
9.51282
9.54439
9.57343
9.60018
9.62484
9.6476
9.66861
9.68799
9.70586
9.72229
9.73738
9.75119
9.76378
9.77523
9.78559
9.79493
9.80331
9.8108
9.81747
9.82339
9.82862
9.83322
9.83726
9.84078
9.84384
9.84649
9.84877
9.85072
9.85238
9.85377
9.85494
9.85589
9.85667
9.85729
9.85776
9.8581
9.85832
9.85843
7.83383
7.84447
7.86577
7.89772
7.94025
7.99306
8.05555
8.12674
8.2053
8.28959
8.37784
8.46828
8.55926
8.64933
8.73728
8.82212
8.90312
8.97973
9.05163
9.11866
9.18084
9.23831
9.29127
9.33999
9.38475
9.42585
9.46359
9.49826
9.53016
9.55953
9.58663
9.61166
9.63477
9.65611
9.67579
9.6939
9.71052
9.72574
9.73961
9.75222
9.76362
9.77388
9.78308
9.79129
9.79859
9.80506
9.81077
9.81579
9.82019
9.82402
9.82734
9.83022
9.83269
9.83479
9.83658
9.83808
9.83933
9.84036
9.84119
9.84185
9.84235
9.84271
9.84295
9.84306
7.61207
7.62377
7.64723
7.68256
7.72975
7.78859
7.8585
7.93839
8.02669
8.12146
8.22059
8.32197
8.42371
8.52417
8.62197
8.71606
8.80561
8.89006
8.96908
9.04254
9.1105
9.17317
9.23081
9.28375
9.33233
9.37688
9.41775
9.45528
9.48979
9.52159
9.55093
9.57805
9.60313
9.62629
9.64767
9.66735
9.68541
9.70195
9.71702
9.7307
9.74306
9.75418
9.76413
9.773
9.78088
9.78784
9.79398
9.79937
9.80409
9.80819
9.81175
9.81482
9.81745
9.81969
9.82159
9.82318
9.8245
9.82559
9.82646
9.82715
9.82767
9.82805
9.82829
9.82841
7.39568
7.40836
7.43387
7.47241
7.52414
7.58898
7.66638
7.75516
7.8535
7.95908
8.06937
8.18193
8.29458
8.40546
8.51309
8.6163
8.71425
8.80632
8.8922
8.97178
9.0452
9.11274
9.17474
9.23159
9.28368
9.33141
9.37515
9.4153
9.4522
9.48621
9.51762
9.54668
9.57357
9.59844
9.62141
9.64255
9.66197
9.67973
9.69592
9.71061
9.72387
9.73578
9.74641
9.75588
9.76427
9.77168
9.77821
9.78393
9.78892
9.79327
9.79702
9.80026
9.80303
9.80538
9.80737
9.80903
9.81041
9.81154
9.81244
9.81315
9.81369
9.81408
9.81433
9.81445
7.18446
7.19804
7.22543
7.26699
7.32309
7.39385
7.47881
7.57672
7.68544
7.8022
7.924
8.04799
8.17168
8.29304
8.41045
8.5227
8.62887
8.72835
8.8208
8.9062
8.98475
9.05682
9.12286
9.18331
9.23864
9.28927
9.33564
9.37815
9.41723
9.45326
9.48656
9.51741
9.54599
9.57246
9.59691
9.61943
9.64011
9.65903
9.67626
9.69189
9.70598
9.71861
9.72987
9.73987
9.74873
9.75653
9.76339
9.7694
9.77464
9.77919
9.78312
9.78649
9.78937
9.79182
9.79388
9.7956
9.79702
9.79818
9.79911
9.79983
9.80038
9.80077
9.80102
9.80115
6.97829
6.99265
7.02172
7.06605
7.12631
7.20286
7.29544
7.40273
7.52224
7.65062
7.7843
7.92
8.05489
8.18676
8.31391
8.43506
8.54929
8.65595
8.75472
8.8456
8.92894
9.00522
9.07497
9.13874
9.19702
9.2503
9.29904
9.3437
9.38474
9.42258
9.45762
9.49012
9.52028
9.54823
9.57407
9.59788
9.61975
9.63975
9.65796
9.67446
9.68931
9.70261
9.71444
9.72492
9.73418
9.74234
9.74949
9.75575
9.7612
9.76592
9.76999
9.77348
9.77645
9.77897
9.78109
9.78285
9.78431
9.78548
9.78642
9.78715
9.7877
9.78809
9.78834
9.78846
6.77706
6.79209
6.82259
6.86941
6.93352
7.01569
7.11593
7.2329
7.36367
7.50417
7.65015
7.79783
7.94405
8.08645
8.22328
8.35322
8.47533
8.58895
8.69375
8.78979
8.87756
8.95771
9.03087
9.09766
9.15864
9.21431
9.26519
9.31178
9.35457
9.39405
9.43065
9.46468
9.49632
9.52567
9.55281
9.57783
9.60081
9.62182
9.64094
9.65826
9.67383
9.68773
9.70007
9.71098
9.72059
9.72905
9.73646
9.74293
9.74856
9.75342
9.75761
9.76119
9.76423
9.7668
9.76896
9.77075
9.77222
9.77341
9.77435
9.77507
9.77562
9.776
9.77625
9.77637
6.58076
6.59629
6.62796
6.67689
6.74449
6.83203
6.93994
7.06692
7.20952
7.36271
7.52143
7.68138
7.83906
7.99198
8.1384
8.27699
8.4068
8.52717
8.63771
8.73856
8.83041
8.91409
8.99035
9.05989
9.12331
9.18114
9.23394
9.28223
9.32658
9.36751
9.40554
9.44098
9.47399
9.50465
9.53303
9.55919
9.5832
9.60516
9.62514
9.64321
9.65944
9.6739
9.68669
9.69797
9.7079
9.71661
9.72424
9.73089
9.73666
9.74164
9.74592
9.74957
9.75267
9.75528
9.75746
9.75927
9.76074
9.76193
9.76286
9.76358
9.76411
9.76448
9.76472
9.76484
6.38936
6.40524
6.43776
6.48838
6.55902
6.6516
6.76714
6.90452
7.05962
7.22612
7.39805
7.57056
7.73978
7.90317
8.05909
8.20616
8.3435
8.47042
8.58641
8.6917
8.78725
8.87413
8.9532
9.02521
9.09084
9.15062
9.20511
9.25492
9.30061
9.34282
9.38213
9.41889
9.4532
9.4851
9.51465
9.54187
9.56685
9.5897
9.61048
9.62926
9.64611
9.66108
9.67427
9.68586
9.69604
9.70497
9.71278
9.71958
9.72547
9.73055
9.7349
9.73859
9.74172
9.74435
9.74655
9.74837
9.74984
9.75101
9.75193
9.75263
9.75314
9.7535
9.75373
9.75384
6.2029
6.21894
6.25197
6.30378
6.37691
6.47408
6.59717
6.74538
6.9138
7.09433
7.27994
7.46529
7.6461
7.81987
7.98515
8.14054
8.28521
8.41851
8.53966
8.649
8.74786
8.83761
8.91919
8.99343
9.06106
9.12257
9.17856
9.22969
9.27654
9.31984
9.3603
9.39829
9.43384
9.46692
9.49757
9.52579
9.55168
9.57537
9.59689
9.61635
9.63377
9.6492
9.66273
9.67458
9.68498
9.69409
9.70204
9.70897
9.71496
9.7201
9.7245
9.72822
9.73137
9.734
9.7362
9.73801
9.73948
9.74063
9.74152
9.7422
9.74269
9.74303
9.74325
9.74335
6.02143
6.03744
6.07059
6.12304
6.19801
6.29921
6.42966
6.58921
6.77196
6.96731
7.16704
7.36553
7.55791
7.74189
7.91641
8.0799
8.23173
8.37128
8.4973
8.61024
8.71198
8.8043
8.88812
8.96435
9.03379
9.09684
9.15414
9.2064
9.25422
9.29842
9.3399
9.37909
9.41581
9.45001
9.48171
9.51088
9.53761
9.56208
9.58431
9.60439
9.62237
9.63821
9.65202
9.66409
9.67466
9.68391
9.69198
9.699
9.70506
9.71026
9.71469
9.71842
9.72156
9.7242
9.72639
9.72819
9.72963
9.73076
9.73162
9.73226
9.73273
9.73304
9.73325
9.73334
5.84499
5.86078
5.89364
5.94613
6.02219
6.1267
6.26422
6.43567
6.63405
6.84504
7.05931
7.27124
7.47509
7.66904
7.85266
8.02402
8.18281
8.32855
8.45916
8.5752
8.67938
8.77399
8.85979
8.93777
9.00886
9.07327
9.13169
9.18495
9.23353
9.27843
9.32082
9.36116
9.39903
9.43429
9.46701
9.49705
9.52457
9.54979
9.57267
9.59334
9.61186
9.62807
9.6421
9.65432
9.66503
9.67439
9.68255
9.68965
9.69576
9.70099
9.70543
9.70916
9.71228
9.7149
9.71708
9.71886
9.72027
9.72136
9.72219
9.72279
9.72323
9.72351
9.7237
9.72378
5.67366
5.68902
5.72119
5.77306
5.84935
5.95628
6.1004
6.28439
6.50008
6.72758
6.95668
7.18241
7.39753
7.60107
7.79373
7.97267
8.13819
8.2902
8.42509
8.54365
8.64978
8.74647
8.83398
8.91349
8.98614
9.05173
9.11108
9.1652
9.21435
9.25973
9.30291
9.34444
9.38341
9.41968
9.4534
9.48425
9.51248
9.53841
9.56191
9.58313
9.60218
9.61873
9.63292
9.64523
9.65605
9.66549
9.67371
9.68087
9.68702
9.69225
9.69669
9.70041
9.70349
9.70608
9.70824
9.70999
9.71137
9.71243
9.71321
9.71377
9.71417
9.71442
9.71459
9.71466
5.50749
5.52224
5.55329
5.60388
5.67943
5.78769
5.93772
6.13494
6.37019
6.61502
6.85904
7.09907
7.32511
7.53773
7.73945
7.92559
8.09756
8.25611
8.39499
8.51536
8.62291
8.72153
8.81051
8.89131
8.96547
9.03207
9.09216
9.14707
9.19658
9.24218
9.28604
9.32883
9.36888
9.40609
9.44082
9.47241
9.50126
9.52791
9.55196
9.5737
9.59331
9.61016
9.62443
9.63677
9.64767
9.65716
9.66541
9.67263
9.67879
9.68402
9.68846
9.69213
9.69517
9.69771
9.69985
9.70158
9.70292
9.70392
9.70466
9.70517
9.70552
9.70574
9.7059
9.70595
5.34655
5.3605
5.39004
5.43864
5.51243
5.62069
5.77563
5.98676
6.24465
6.5075
6.76622
7.02131
7.25771
7.47867
7.6897
7.88253
8.06057
8.22623
8.36876
8.49007
8.59845
8.69902
8.7892
8.87102
8.94675
9.01417
9.07479
9.13047
9.18013
9.22565
9.27004
9.31428
9.35538
9.39345
9.42922
9.46146
9.49085
9.51822
9.54276
9.56497
9.58521
9.60233
9.61657
9.62887
9.63986
9.64936
9.65762
9.6649
9.67106
9.67626
9.68068
9.68431
9.68727
9.68977
9.69189
9.69359
9.69488
9.69583
9.69652
9.69698
9.69728
9.69746
9.69759
9.69764
5.19089
5.20387
5.23151
5.27745
5.34836
5.4551
5.61351
5.83916
6.12398
6.40519
6.67793
6.94932
7.19521
7.42345
7.64442
7.84322
8.02676
8.20058
8.34636
8.46753
8.57605
8.6788
8.76987
8.85239
8.92991
8.99792
9.0588
9.11537
9.16493
9.20997
9.25477
9.30076
9.34286
9.38164
9.41858
9.45135
9.48114
9.50931
9.53426
9.55688
9.57786
9.5952
9.6093
9.62149
9.63258
9.64207
9.65029
9.65765
9.66379
9.66893
9.67335
9.67691
9.67978
9.68222
9.68433
9.686
9.68723
9.68813
9.68876
9.68916
9.6894
9.68955
9.68966
9.6897
5.04053
5.05239
5.07779
5.12042
5.18733
5.29078
5.45072
5.69116
6.009
6.30835
6.59364
6.88342
7.13748
7.37148
7.60369
7.80739
7.99555
8.1793
8.32779
8.44744
8.5553
8.66082
8.75239
8.83515
8.91489
8.9832
9.044
9.10173
9.15091
9.19502
9.24003
9.28829
9.33126
9.37057
9.40888
9.44203
9.47204
9.50116
9.52641
9.54933
9.57125
9.58876
9.60257
9.61456
9.6258
9.63524
9.64339
9.65085
9.65695
9.66201
9.66644
9.66992
9.67268
9.67503
9.67716
9.67879
9.67996
9.6808
9.68137
9.68171
9.68189
9.68199
9.68208
9.68211
4.89549
4.90612
4.92898
4.9677
5.02947
5.12768
5.28653
5.54146
5.901
6.21722
6.51257
6.82419
7.0844
7.32198
7.56775
7.77478
7.96617
8.16268
8.31307
8.42947
8.5357
8.6451
8.73659
8.81899
8.90175
8.96992
9.03019
9.08959
9.13804
9.18062
9.22559
9.27692
9.32056
9.36008
9.40016
9.43345
9.46344
9.49378
9.51915
9.54221
9.5654
9.58299
9.59633
9.60801
9.61951
9.62884
9.63687
9.6445
9.65052
9.65547
9.65993
9.66332
9.66592
9.66819
9.67035
9.67195
9.67305
9.67382
9.67432
9.6746
9.67471
9.67477
9.67483
9.67486
4.75576
4.76505
4.78513
4.81943
4.87499
4.96585
5.12023
5.3882
5.80191
6.1321
6.43348
6.77251
7.03582
7.27384
7.53713
7.7451
7.93758
8.15125
8.30229
8.41327
8.51665
8.6318
8.72237
8.8035
8.89059
8.95798
9.01705
9.07905
9.12631
9.16661
9.21117
9.2668
9.31073
9.35
9.39247
9.42556
9.45519
9.48721
9.51242
9.5354
9.56034
9.57789
9.59052
9.60177
9.6137
9.62285
9.63067
9.63859
9.64448
9.64925
9.65382
9.65707
9.65949
9.66166
9.6639
9.66545
9.66647
9.66717
9.66761
9.66782
9.66785
9.66786
9.66791
9.66792
4.62132
4.62921
4.64632
4.67576
4.72415
4.80548
4.95115
5.22875
5.71454
6.05325
6.35451
6.72979
6.99161
7.22558
7.51274
7.7181
7.90837
8.14585
8.29552
8.39846
8.4974
8.62126
8.7096
8.78815
8.88166
8.9473
9.00424
9.07027
9.1157
9.15285
9.1964
9.25815
9.30174
9.34008
9.38594
9.41832
9.44708
9.48152
9.50619
9.5287
9.55616
9.57344
9.58509
9.59574
9.60839
9.61725
9.62473
9.63311
9.6388
9.64333
9.64808
9.65118
9.65337
9.65541
9.6578
9.65929
9.66021
9.66084
9.66121
9.66135
9.66128
9.66126
9.66129
9.6613
4.49213
4.49857
4.51258
4.53685
4.57724
4.64692
4.77881
5.05944
5.64288
5.98087
6.27301
6.69811
6.95158
7.17513
7.49604
7.69349
7.87661
8.14779
8.29282
8.38461
8.47697
8.61404
8.69819
8.77227
8.87537
8.93779
8.99125
9.06354
9.10622
9.13917
9.1808
9.25135
9.29357
9.32999
9.3808
9.41169
9.43886
9.47688
9.50041
9.52191
9.55299
9.56964
9.57998
9.58981
9.60363
9.612
9.61897
9.62809
9.63346
9.63765
9.64273
9.64562
9.64753
9.64941
9.65203
9.65344
9.65425
9.6548
9.65511
9.65519
9.65501
9.65495
9.65497
9.65497
4.3681
4.37308
4.38393
4.40282
4.43459
4.49069
4.60301
4.87515
5.59251
5.91505
6.18525
6.68051
6.91552
7.11969
7.48919
7.67102
7.83974
8.15897
8.29418
8.37133
8.45413
8.61106
8.68801
8.75494
8.87236
8.92936
8.97743
9.05929
9.09788
9.12544
9.16375
9.24694
9.28618
9.31927
9.37735
9.40563
9.43021
9.47351
9.49502
9.5147
9.55102
9.56648
9.57513
9.58384
9.59947
9.60708
9.61331
9.62357
9.62845
9.63215
9.63778
9.64037
9.64195
9.64361
9.6466
9.64789
9.64856
9.64905
9.64929
9.64932
9.64899
9.64891
9.64891
9.64891
4.24917
4.25268
4.26036
4.27378
4.29653
4.3375
4.42409
4.66882
5.57103
5.85565
6.08611
6.68127
6.88311
7.0555
7.49532
7.65042
7.79431
8.1821
8.29941
8.35825
8.42727
8.61362
8.67896
8.73496
8.87358
8.9219
8.96193
9.05816
9.09065
9.11159
9.14441
9.24569
9.27953
9.30734
9.37606
9.40009
9.42066
9.47176
9.49
9.50668
9.55055
9.56391
9.57049
9.57767
9.59604
9.60247
9.60763
9.61961
9.62373
9.62676
9.63325
9.63542
9.63661
9.63798
9.64153
9.64263
9.64314
9.64357
9.64374
9.64373
9.64322
9.64313
9.64313
9.64313
4.13521
4.13729
4.14184
4.1498
4.16339
4.18819
4.24321
4.43086
5.58867
5.80219
5.96876
6.70631
6.85395
6.97758
7.51879
7.63141
7.73578
8.22094
8.30802
8.34511
8.39434
8.62354
8.67089
8.71074
8.88032
8.91529
8.94364
9.06101
9.08445
9.09761
9.12168
9.24867
9.27355
9.29339
9.3776
9.395
9.40965
9.47212
9.4853
9.49733
9.55199
9.56188
9.56601
9.57108
9.5935
9.59814
9.60177
9.61631
9.61928
9.62139
9.62919
9.63075
9.63149
9.63246
9.63683
9.63764
9.63796
9.63834
9.63845
9.63841
9.63768
9.6376
9.63759
9.63759
4.02612
4.02681
4.02831
4.03094
4.03543
4.0437
4.06275
4.14847
5.65892
5.75372
5.82426
6.76361
6.82741
6.87947
7.56547
7.6137
7.65828
8.28058
8.31908
8.33186
8.35267
8.64331
8.66359
8.68024
8.89437
8.90933
8.92111
9.06905
9.0791
9.08362
9.09413
9.25729
9.26812
9.27642
9.38284
9.39029
9.39641
9.47525
9.48086
9.48597
9.5559
9.56025
9.56168
9.56379
9.59207
9.59406
9.59555
9.61381
9.61508
9.61594
9.62566
9.62632
9.62658
9.62698
9.63253
9.63289
9.633
9.63335
9.63339
9.63336
9.63234
9.6323
9.6323
9.6323
)
;

boundaryField
{
    left
    {
        type            zeroGradient;
    }
    right
    {
        type            zeroGradient;
    }
    interface
    {
        type            fixedValue;
        value           nonuniform List<scalar> 
64
(
3.97278
3.97278
3.97278
3.97278
3.97278
3.97278
3.97278
3.97278
5.73067
5.73067
5.73067
6.81475
6.81475
6.81475
7.60514
7.60514
7.60514
8.32517
8.32517
8.32517
8.32517
8.66012
8.66012
8.66012
8.9065
8.9065
8.9065
9.07663
9.07663
9.07663
9.07663
9.26553
9.26553
9.26553
9.38802
9.38802
9.38802
9.47871
9.47871
9.47871
9.55954
9.55954
9.55954
9.55954
9.59207
9.59207
9.59207
9.61304
9.61304
9.61304
9.62417
9.62417
9.62417
9.62417
9.63057
9.63057
9.63057
9.63092
9.63092
9.63092
9.62971
9.62971
9.62971
9.62971
)
;
    }
    bottom
    {
        type            fixedValue;
        value           uniform 10;
    }
    defaultFaces
    {
        type            empty;
    }
}


// ************************************************************************* //
