/*--------------------------------*- C++ -*----------------------------------*\
| =========                 |                                                 |
| \\      /  F ield         | OpenFOAM: The Open Source CFD Toolbox           |
|  \\    /   O peration     | Version:  5.x                                   |
|   \\  /    A nd           | Web:      www.OpenFOAM.org                      |
|    \\/     M anipulation  |                                                 |
\*---------------------------------------------------------------------------*/
FoamFile
{
    version     2.0;
    format      ascii;
    class       volScalarField;
    location    "6.4";
    object      gradTy;
}
// * * * * * * * * * * * * * * * * * * * * * * * * * * * * * * * * * * * * * //

dimensions      [0 -1 0 1 0 0 0];

internalField   nonuniform List<scalar> 
2048
(
-20.2159
-20.1198
-19.9284
-19.6442
-19.2705
-18.8126
-18.2771
-17.6724
-17.0086
-16.2968
-15.549
-14.7774
-13.9939
-13.2096
-12.4348
-11.6779
-10.9463
-10.2456
-9.57988
-8.95196
-8.36333
-7.81444
-7.30488
-6.83356
-6.3989
-5.99901
-5.63175
-5.29493
-4.98631
-4.70375
-4.4452
-4.20876
-3.99269
-3.79542
-3.61554
-3.45176
-3.30293
-3.16797
-3.04589
-2.93574
-2.83665
-2.74774
-2.66819
-2.59721
-2.53402
-2.47789
-2.42811
-2.38404
-2.34507
-2.31064
-2.28025
-2.25345
-2.22984
-2.20908
-2.19089
-2.17502
-2.16127
-2.1495
-2.13959
-2.13143
-2.12497
-2.12016
-2.11697
-2.11538
-20.2938
-20.1967
-20.0036
-19.7165
-19.3387
-18.8753
-18.333
-17.7203
-17.0474
-16.3259
-15.5682
-14.787
-13.9944
-13.2021
-12.4202
-11.6575
-10.9213
-10.2172
-9.54929
-8.92015
-8.33116
-7.7826
-7.27391
-6.80386
-6.37075
-5.97257
-5.6071
-5.27207
-4.9652
-4.68429
-4.42727
-4.19223
-3.97743
-3.78131
-3.60246
-3.43963
-3.29166
-3.1575
-3.03618
-2.92676
-2.82835
-2.74012
-2.66121
-2.59085
-2.52826
-2.47269
-2.42344
-2.37987
-2.34135
-2.30733
-2.2773
-2.25082
-2.22748
-2.20696
-2.18896
-2.17325
-2.15963
-2.14796
-2.13811
-2.13001
-2.12359
-2.1188
-2.11563
-2.11405
-20.4416
-20.343
-20.1466
-19.8542
-19.4687
-18.995
-18.4397
-17.8115
-17.1212
-16.3811
-15.6045
-14.8047
-13.9948
-13.1869
-12.3916
-11.6179
-10.8731
-10.1627
-9.49068
-8.85933
-8.26976
-7.72195
-7.21502
-6.74748
-6.31737
-5.92248
-5.56044
-5.22885
-4.92531
-4.64755
-4.39345
-4.16106
-3.94866
-3.75469
-3.57779
-3.41672
-3.27037
-3.13773
-3.01783
-2.90977
-2.81268
-2.7257
-2.64803
-2.57884
-2.51737
-2.46288
-2.41464
-2.37199
-2.33432
-2.30108
-2.27174
-2.24586
-2.22305
-2.20297
-2.18533
-2.16992
-2.15653
-2.14504
-2.13533
-2.12733
-2.12098
-2.11624
-2.1131
-2.11153
-20.6512
-20.5506
-20.3498
-20.0502
-19.6541
-19.1659
-18.5921
-17.9418
-17.2263
-16.4593
-15.6551
-14.8286
-13.9939
-13.1637
-12.3494
-11.5601
-10.8032
-10.0841
-9.40646
-8.77226
-8.18214
-7.63564
-7.13143
-6.66762
-6.24191
-5.85181
-5.49472
-5.16806
-4.86928
-4.596
-4.34602
-4.11738
-3.90834
-3.71738
-3.54318
-3.38457
-3.24049
-3.10995
-2.99205
-2.88589
-2.79063
-2.70544
-2.62949
-2.56197
-2.5021
-2.44911
-2.40229
-2.36096
-2.3245
-2.29235
-2.26398
-2.23895
-2.21687
-2.19741
-2.18029
-2.16528
-2.15222
-2.14098
-2.13145
-2.12359
-2.11733
-2.11265
-2.10954
-2.10799
-20.9153
-20.8124
-20.6067
-20.2986
-19.8897
-19.3835
-18.7863
-18.1074
-17.3595
-16.5575
-15.7177
-14.8567
-13.9901
-13.1316
-12.2932
-11.4844
-10.7125
-9.98274
-9.29843
-8.66109
-8.07075
-7.52633
-7.02592
-6.56711
-6.14718
-5.7633
-5.41259
-5.09223
-4.79952
-4.53191
-4.28713
-4.06316
-3.85829
-3.67105
-3.50018
-3.3446
-3.20329
-3.07535
-2.95991
-2.85611
-2.76314
-2.68017
-2.60637
-2.54095
-2.48308
-2.432
-2.38697
-2.34729
-2.31234
-2.28155
-2.2544
-2.23043
-2.20927
-2.19057
-2.17407
-2.15957
-2.1469
-2.13596
-2.12665
-2.11894
-2.11279
-2.10819
-2.10512
-2.10359
-21.2274
-21.1223
-20.9116
-20.5945
-20.1712
-19.6442
-19.0191
-18.3057
-17.5181
-16.6732
-15.7899
-14.8869
-13.9817
-13.0894
-12.2224
-11.3906
-10.6013
-9.85952
-9.16798
-8.52759
-7.93766
-7.39632
-6.90093
-6.44846
-6.03571
-5.65944
-5.31646
-5.0037
-4.71823
-4.45737
-4.21872
-4.00022
-3.80018
-3.61722
-3.45018
-3.29806
-3.15994
-3.03499
-2.92239
-2.82133
-2.73101
-2.65064
-2.57939
-2.51643
-2.46093
-2.41209
-2.36916
-2.33143
-2.29827
-2.26908
-2.24335
-2.22063
-2.20052
-2.18271
-2.16694
-2.15301
-2.14078
-2.13017
-2.1211
-2.11356
-2.10752
-2.10299
-2.09997
-2.09845
-21.5815
-21.4746
-21.2593
-20.9335
-20.4953
-19.9453
-19.2884
-18.5347
-17.6999
-16.8041
-15.8693
-14.9171
-13.967
-13.0356
-12.1361
-11.2785
-10.47
-9.71513
-9.01618
-8.37324
-7.78468
-7.24767
-6.75868
-6.31397
-5.90978
-5.54246
-5.2085
-4.90454
-4.62744
-4.3743
-4.14258
-3.93021
-3.73554
-3.55728
-3.39443
-3.24609
-3.11148
-2.98982
-2.88036
-2.78234
-2.69499
-2.61754
-2.54915
-2.48898
-2.43617
-2.38989
-2.34934
-2.31382
-2.28266
-2.25527
-2.23115
-2.20982
-2.1909
-2.17408
-2.1591
-2.14579
-2.13404
-2.12377
-2.11495
-2.10758
-2.10165
-2.09719
-2.09421
-2.09271
-21.9717
-21.8638
-21.6454
-21.312
-20.8591
-20.2849
-19.5926
-18.7927
-17.9033
-16.9483
-15.9537
-14.9448
-13.9439
-12.9688
-12.0333
-11.1476
-10.3184
-9.55004
-8.84394
-8.19934
-7.61346
-7.08226
-6.60121
-6.16574
-5.77149
-5.41443
-5.0907
-4.7967
-4.52899
-4.28445
-4.06038
-3.85466
-3.66573
-3.49247
-3.33404
-3.18972
-3.05884
-2.94069
-2.83459
-2.73984
-2.65572
-2.58145
-2.51622
-2.45914
-2.4093
-2.36583
-2.32792
-2.29481
-2.26586
-2.24046
-2.21808
-2.19828
-2.18065
-2.16489
-2.15076
-2.1381
-2.12683
-2.11691
-2.10834
-2.10112
-2.0953
-2.0909
-2.08795
-2.08647
-22.3927
-22.285
-22.0654
-21.7267
-21.2607
-20.6619
-19.9311
-19.079
-18.1269
-17.1036
-16.0407
-14.968
-13.9104
-12.8874
-11.9132
-10.9974
-10.1467
-9.36463
-8.65205
-8.00708
-7.42552
-6.9019
-6.43044
-6.00571
-5.62278
-5.27721
-4.96488
-4.6819
-4.42455
-4.18943
-3.97361
-3.77494
-3.592
-3.42389
-3.27001
-3.12984
-3.00281
-2.88833
-2.78577
-2.69447
-2.61376
-2.54291
-2.48109
-2.42735
-2.38075
-2.34033
-2.30526
-2.27477
-2.24818
-2.22491
-2.20442
-2.18624
-2.16999
-2.15534
-2.14209
-2.1301
-2.11931
-2.10973
-2.10137
-2.0943
-2.08856
-2.08421
-2.08128
-2.07981
-22.8389
-22.733
-22.5153
-22.1747
-21.6984
-21.0756
-20.3037
-19.3932
-18.3694
-17.2681
-16.128
-14.984
-13.8645
-12.79
-11.7746
-10.8276
-9.95477
-9.15924
-8.44122
-7.79758
-7.22237
-6.7083
-6.24822
-5.83575
-5.46543
-5.1325
-4.83265
-4.56171
-4.31566
-4.09071
-3.88366
-3.69231
-3.51545
-3.35252
-3.20321
-3.06722
-2.94413
-2.83341
-2.73449
-2.64676
-2.56962
-2.50237
-2.44418
-2.39404
-2.3509
-2.31375
-2.28171
-2.25398
-2.22991
-2.20888
-2.19038
-2.17392
-2.1591
-2.14562
-2.13325
-2.12192
-2.1116
-2.10233
-2.09417
-2.08721
-2.08152
-2.0772
-2.07429
-2.07283
-23.3047
-23.2029
-22.9909
-22.6534
-22.171
-21.5262
-20.7111
-19.7355
-18.6299
-17.4398
-16.2129
-14.9904
-13.804
-12.675
-11.6168
-10.6377
-9.74267
-8.93421
-8.21211
-7.57195
-7.00548
-6.50318
-6.05632
-5.65761
-5.30109
-4.98187
-4.69548
-4.43754
-4.20367
-3.98964
-3.7918
-3.60789
-3.43706
-3.27919
-3.13436
-3.00253
-2.8834
-2.77649
-2.68127
-2.59718
-2.52371
-2.46022
-2.40587
-2.35956
-2.3201
-2.28641
-2.25755
-2.23272
-2.21126
-2.19259
-2.17616
-2.16149
-2.14817
-2.13586
-2.12439
-2.1137
-2.10381
-2.09481
-2.0868
-2.07992
-2.07427
-2.06995
-2.06705
-2.06558
-23.7847
-23.6895
-23.4882
-23.16
-22.6778
-22.0147
-21.1549
-20.1066
-18.9076
-17.6165
-16.2926
-14.9843
-13.7268
-12.5413
-11.4393
-10.4278
-9.5106
-8.68984
-7.96534
-7.33126
-6.77637
-6.28825
-5.85651
-5.47296
-5.13129
-4.82669
-4.55466
-4.31061
-4.08985
-3.88747
-3.6992
-3.5227
-3.35767
-3.20463
-3.06409
-2.93634
-2.82117
-2.71808
-2.62657
-2.54616
-2.47639
-2.41679
-2.36648
-2.32423
-2.28866
-2.25859
-2.23304
-2.21121
-2.19246
-2.17621
-2.16193
-2.14912
-2.13733
-2.12623
-2.11563
-2.10553
-2.09602
-2.08725
-2.07936
-2.07251
-2.06685
-2.06252
-2.0596
-2.05814
-24.2732
-24.1877
-24.003
-23.6922
-23.2183
-22.5424
-21.6374
-20.508
-19.2016
-17.7957
-16.3641
-14.963
-13.6308
-12.3875
-11.2415
-10.1979
-9.25889
-8.42642
-7.70141
-7.0766
-6.5366
-6.06525
-5.65051
-5.28339
-4.95742
-4.66818
-4.41131
-4.18201
-3.97528
-3.78536
-3.60697
-3.43766
-3.27802
-3.12943
-2.99291
-2.86912
-2.75789
-2.65861
-2.57081
-2.49404
-2.42797
-2.37235
-2.3263
-2.28834
-2.25686
-2.23056
-2.20843
-2.18966
-2.17367
-2.15991
-2.14783
-2.13694
-2.12673
-2.11683
-2.10706
-2.0975
-2.08833
-2.07972
-2.07189
-2.06502
-2.05932
-2.05494
-2.05202
-2.05055
-24.7645
-24.6923
-24.531
-24.2471
-23.7922
-23.1116
-22.1621
-20.9417
-19.5109
-17.9743
-16.4239
-14.9231
-13.5139
-12.2131
-11.0235
-9.9485
-8.98809
-8.14415
-7.42072
-6.8091
-6.28789
-5.83597
-5.44001
-5.09046
-4.78073
-4.50744
-4.26641
-4.05262
-3.86094
-3.68441
-3.51616
-3.35356
-3.1987
-3.05406
-2.92122
-2.80127
-2.69396
-2.59846
-2.51434
-2.44114
-2.37869
-2.32711
-2.28556
-2.25216
-2.22495
-2.20255
-2.1839
-2.16824
-2.15505
-2.14381
-2.13399
-2.12507
-2.11648
-2.10777
-2.09878
-2.0897
-2.08078
-2.07227
-2.06444
-2.05752
-2.05172
-2.04727
-2.04432
-2.04285
-25.2532
-25.198
-25.0676
-24.8219
-24.3994
-23.7252
-22.7336
-21.4107
-19.8339
-18.1488
-16.4685
-14.8614
-13.3743
-12.0175
-10.7855
-9.68039
-8.69904
-7.84311
-7.12343
-6.52992
-6.0321
-5.6022
-5.22668
-4.89562
-4.60233
-4.34535
-4.12078
-3.92314
-3.74765
-3.58569
-3.42782
-3.2711
-3.12017
-2.97892
-2.84931
-2.73308
-2.62975
-2.53796
-2.45748
-2.38775
-2.32872
-2.28123
-2.24447
-2.21593
-2.19317
-2.17476
-2.15965
-2.14709
-2.1367
-2.12803
-2.1205
-2.1136
-2.10668
-2.09915
-2.09085
-2.08217
-2.07344
-2.06495
-2.05707
-2.05002
-2.04407
-2.03953
-2.03656
-2.0351
-25.7337
-25.6994
-25.6082
-25.4135
-25.0394
-24.3869
-23.3583
-21.919
-20.1685
-18.3147
-16.4939
-14.7741
-13.21
-11.801
-10.5279
-9.39475
-8.39296
-7.52306
-6.80935
-6.24031
-5.77139
-5.36577
-5.01213
-4.70034
-4.42312
-4.18267
-3.97512
-3.79408
-3.63608
-3.49029
-3.34302
-3.19084
-3.04277
-2.90429
-2.77735
-2.66481
-2.56558
-2.47742
-2.40053
-2.33413
-2.27819
-2.2348
-2.2032
-2.17988
-2.16171
-2.14737
-2.13583
-2.12632
-2.11873
-2.11263
-2.10742
-2.10261
-2.09744
-2.09106
-2.08334
-2.07495
-2.06633
-2.05779
-2.04979
-2.04258
-2.03641
-2.03174
-2.02876
-2.02733
-26.2008
-26.1912
-26.1476
-26.0179
-25.7116
-25.1007
-24.044
-22.4722
-20.5109
-18.4663
-16.4964
-14.6571
-13.0195
-11.5645
-10.2512
-9.0932
-8.07175
-7.1833
-6.47778
-5.94169
-5.50834
-5.1284
-4.79788
-4.50608
-4.24379
-4.01996
-3.83008
-3.66565
-3.52673
-3.39932
-3.26294
-3.11318
-2.96665
-2.83041
-2.7054
-2.59662
-2.5018
-2.41706
-2.34378
-2.28056
-2.22713
-2.18782
-2.16191
-2.14427
-2.13077
-2.12055
-2.11257
-2.10601
-2.10119
-2.09769
-2.09479
-2.09216
-2.08882
-2.08358
-2.07629
-2.06808
-2.0595
-2.0508
-2.04264
-2.03521
-2.02874
-2.02391
-2.02094
-2.01957
-26.6494
-26.6682
-26.6807
-26.6308
-26.4146
-25.8712
-24.8013
-23.0777
-20.8549
-18.5967
-16.4732
-14.5055
-12.8012
-11.3104
-9.95608
-8.7778
-7.73823
-6.82232
-6.12729
-5.6358
-5.24616
-4.89161
-4.58531
-4.31444
-4.06468
-3.85764
-3.68633
-3.5378
-3.41986
-3.31406
-3.18895
-3.03826
-2.89182
-2.75751
-2.63338
-2.52862
-2.43878
-2.35705
-2.28749
-2.22738
-2.1755
-2.14023
-2.12077
-2.10937
-2.10051
-2.09442
-2.09003
-2.08623
-2.08413
-2.08326
-2.08264
-2.08229
-2.08094
-2.07681
-2.0697
-2.06156
-2.05296
-2.044
-2.03564
-2.02796
-2.02106
-2.01604
-2.01313
-2.01187
-27.0752
-27.1256
-27.2019
-27.247
-27.146
-26.7029
-25.6431
-23.7467
-21.1906
-18.6972
-16.4228
-14.3131
-12.554
-11.0427
-9.64206
-8.45107
-7.39685
-6.43731
-5.75544
-5.32482
-4.98898
-4.65642
-4.37561
-4.12729
-3.88568
-3.69596
-3.54471
-3.41001
-3.31547
-3.23595
-3.12276
-2.96584
-2.81805
-2.68594
-2.56099
-2.46089
-2.37702
-2.29744
-2.23193
-2.17499
-2.12311
-2.09184
-2.07994
-2.07551
-2.07105
-2.06911
-2.06834
-2.06698
-2.06758
-2.06939
-2.07095
-2.073
-2.07388
-2.07085
-2.06356
-2.05539
-2.04676
-2.03736
-2.0288
-2.02086
-2.01336
-2.00811
-2.00534
-2.00427
-27.4743
-27.5587
-27.7057
-27.8605
-27.9021
-27.5999
-26.5858
-24.4948
-21.5017
-18.7575
-16.3474
-14.0715
-12.2768
-10.7681
-9.30723
-8.11598
-7.05457
-6.02343
-5.35846
-5.01171
-4.74236
-4.42297
-4.16968
-3.94715
-3.70597
-3.53497
-3.40651
-3.28119
-3.21316
-3.16676
-3.0666
-2.89509
-2.74491
-2.61628
-2.48767
-2.39342
-2.31722
-2.23811
-2.17735
-2.12403
-2.0696
-2.04236
-2.03964
-2.0431
-2.04243
-2.04468
-2.04768
-2.04822
-2.05152
-2.05616
-2.05967
-2.0643
-2.06775
-2.06584
-2.05783
-2.04954
-2.04094
-2.03086
-2.02214
-2.01398
-2.00562
-2.00011
-1.99761
-1.99681
-27.8432
-27.9634
-28.1865
-28.4644
-28.6772
-28.5651
-27.6494
-25.3458
-21.7623
-18.765
-16.2548
-13.7681
-11.9686
-10.498
-8.94649
-7.77584
-6.72238
-5.57259
-4.93094
-4.70048
-4.51387
-4.1898
-3.96808
-3.77759
-3.52356
-3.37459
-3.27381
-3.1494
-3.11207
-3.10864
-3.02358
-2.82426
-2.67172
-2.54962
-2.41238
-2.32616
-2.26042
-2.17859
-2.12402
-2.07541
-2.01433
-1.99134
-2.00014
-2.01271
-2.01462
-2.0212
-2.02826
-2.02986
-2.03595
-2.04365
-2.0487
-2.05613
-2.06268
-2.06194
-2.05237
-2.04399
-2.03558
-2.02443
-2.01568
-2.00741
-1.99778
-1.99199
-1.98994
-1.98955
-28.1795
-28.3363
-28.639
-29.051
-29.4635
-29.5991
-28.8575
-26.3353
-21.9317
-18.7053
-16.1625
-13.3837
-11.6284
-10.2504
-8.54926
-7.43431
-6.41753
-5.07166
-4.46554
-4.39666
-4.31405
-3.9528
-3.77099
-3.62406
-3.33472
-3.21457
-3.15006
-3.01144
-3.01075
-3.06425
-2.99808
-2.75014
-2.59755
-2.48789
-2.33338
-2.25902
-2.20828
-2.11793
-2.07218
-2.0306
-1.95623
-1.93817
-1.96183
-1.98508
-1.98737
-1.99866
-2.01043
-2.01168
-2.02084
-2.03203
-2.03789
-2.04844
-2.05883
-2.05942
-2.04699
-2.03867
-2.03083
-2.01795
-2.00943
-2.00131
-1.98974
-1.98371
-1.98237
-1.98256
-28.4814
-28.6745
-29.0579
-29.6121
-30.2507
-30.6986
-30.237
-27.5174
-21.9469
-18.5622
-16.1032
-12.8877
-11.2555
-10.0537
-8.09597
-7.09522
-6.16682
-4.49984
-3.95291
-4.10766
-4.15775
-3.70376
-3.57811
-3.49498
-3.13297
-3.05454
-3.04092
-2.86224
-2.90707
-3.03683
-2.99647
-2.66738
-2.52123
-2.43443
-2.2478
-2.19183
-2.16334
-2.05436
-2.02207
-1.99183
-1.89361
-1.88208
-1.92523
-1.96128
-1.96019
-1.97705
-1.9947
-1.99331
-2.00613
-2.0216
-2.02696
-2.04111
-2.05639
-2.05865
-2.04134
-2.03354
-2.02692
-2.0112
-2.0034
-1.9959
-1.98136
-1.97521
-1.97494
-1.9759
-28.7479
-28.9759
-29.439
-30.1391
-31.0259
-31.8553
-31.8161
-28.9748
-21.7117
-18.319
-16.1322
-12.2319
-10.8492
-9.95156
-7.55298
-6.76252
-6.01123
-3.82461
-3.38197
-3.84314
-4.06593
-3.42811
-3.38879
-3.4034
-2.90761
-2.89404
-2.95538
-2.69399
-2.7982
-3.03017
-3.02803
-2.56736
-2.44144
-2.3947
-2.15103
-2.12442
-2.12958
-1.98481
-1.97393
-1.96253
-1.82382
-1.82217
-1.89105
-1.94279
-1.93218
-1.95632
-1.98185
-1.97413
-1.99178
-2.01279
-2.01553
-2.034
-2.05556
-2.06017
-2.03487
-2.02851
-2.02423
-2.00387
-1.99762
-1.99155
-1.97241
-1.96643
-1.96771
-1.96966
-28.9786
-29.2394
-29.7786
-30.6235
-31.7736
-33.0535
-33.6214
-30.8318
-21.0821
-17.9595
-16.3384
-11.3412
-10.4095
-10.0106
-6.86551
-6.44015
-6.0123
-2.99619
-2.74087
-3.61506
-4.06819
-3.10202
-3.20208
-3.36916
-2.64168
-2.73267
-2.90728
-2.49484
-2.68072
-3.04843
-3.10627
-2.43678
-2.35684
-2.37729
-2.0358
-2.05664
-2.11298
-1.90433
-1.92798
-1.94784
-1.74275
-1.75749
-1.86019
-1.93168
-1.9018
-1.93639
-1.97308
-1.95318
-1.97773
-2.00632
-2.00298
-2.02691
-2.0566
-2.06479
-2.02674
-2.02352
-2.02338
-1.99541
-1.9921
-1.98879
-1.9625
-1.9573
-1.96076
-1.96391
-29.1742
-29.4644
-30.0739
-31.0575
-32.4765
-34.2687
-35.6715
-33.2745
-19.8461
-17.4711
-16.8577
-10.1001
-9.93762
-10.3295
-5.94793
-6.13203
-6.26074
-1.93955
-2.01902
-3.43729
-4.20626
-2.68829
-3.01711
-3.422
-2.30911
-2.57032
-2.91742
-2.24715
-2.55094
-3.09575
-3.25081
-2.25557
-2.26631
-2.39526
-1.89099
-1.98844
-2.1225
-1.80522
-1.88445
-1.95535
-1.64424
-1.68722
-1.83372
-1.93081
-1.86665
-1.91718
-1.97016
-1.92895
-1.96397
-2.00323
-1.98843
-2.01963
-2.05971
-2.0737
-2.01569
-2.0185
-2.02527
-1.98501
-1.98688
-1.98839
-1.95104
-1.94778
-1.95419
-1.95876
-29.3355
-29.6515
-30.3232
-31.4343
-33.1161
-35.4661
-37.9676
-36.5767
-17.6966
-16.8486
-17.8914
-8.33582
-9.43731
-11.0519
-4.67097
-5.8422
-6.88763
-0.543671
-1.21064
-3.32429
-4.53864
-2.13117
-2.83354
-3.60537
-1.87088
-2.4075
-3.01614
-1.92505
-2.40566
-3.17538
-3.48986
-1.99432
-2.16936
-2.46788
-1.69991
-1.92003
-2.17115
-1.67581
-1.84362
-1.99603
-1.51909
-1.61096
-1.81281
-1.94417
-1.82307
-1.89866
-1.97569
-1.89918
-1.95051
-2.00508
-1.97056
-2.01196
-2.06505
-2.08859
-1.99986
-2.01342
-2.03125
-1.97143
-1.98197
-1.99146
-1.93716
-1.93788
-1.94811
-1.95426
-29.4643
-29.8017
-30.5262
-31.7486
-33.6743
-36.6002
-40.4785
-41.1357
-14.1973
-16.1003
-19.7277
-5.79528
-8.91722
-12.3827
-2.84532
-5.5751
-8.07867
1.35274
-0.32062
-3.28858
-5.14671
-1.34957
-2.65237
-3.98141
-1.27004
-2.24595
-3.24664
-1.4912
-2.24344
-3.28832
-3.86352
-1.61083
-2.06669
-2.62273
-1.43812
-1.85215
-2.27749
-1.49905
-1.80586
-2.08537
-1.35392
-1.52919
-1.79854
-1.97725
-1.76574
-1.88089
-1.99332
-1.86054
-1.93742
-2.01405
-1.94745
-2.00375
-2.0726
-2.11188
-1.9766
-2.00826
-2.04325
-1.95288
-1.97741
-1.99956
-1.91954
-1.92771
-1.94266
-1.95048
-29.5625
-29.9168
-30.6835
-31.9975
-34.1345
-37.6157
-43.12
-47.5171
-8.73815
-15.2566
-22.7692
-2.11663
-8.39402
-14.6076
-0.201193
-5.33624
-10.0918
3.97977
0.626834
-3.33631
-6.14266
-0.228764
-2.47708
-4.63695
-0.425477
-2.08954
-3.66892
-0.892647
-2.06662
-3.43114
-4.42811
-1.04576
-1.96104
-2.89828
-1.07074
-1.78637
-2.46737
-1.25059
-1.77176
-2.24489
-1.12958
-1.44401
-1.7916
-2.03751
-1.68702
-1.86412
-2.02818
-1.80827
-1.92495
-2.03313
-1.91638
-1.99499
-2.08203
-2.14697
-1.94214
-2.00311
-2.06393
-1.92674
-1.97325
-2.01481
-1.89624
-1.91749
-1.93798
-1.94742
-29.6324
-29.999
-30.7969
-32.18
-34.4842
-38.4517
-45.7254
-56.5129
-0.482243
-14.3808
-27.5645
3.20554
-7.89715
-18.1168
3.63648
-5.1332
-13.2784
7.65955
1.57574
-3.46032
-7.6796
1.38983
-2.31517
-5.69073
0.775802
-1.94544
-4.36456
-0.0555448
-1.88434
-3.59282
-5.2615
-0.217435
-1.85831
-3.34699
-0.548998
-1.72566
-2.77606
-0.89651
-1.74231
-2.50382
-0.819185
-1.36011
-1.79177
-2.13507
-1.57634
-1.84888
-2.08719
-1.73567
-1.91352
-2.0664
-1.87351
-1.98597
-2.09251
-2.19856
-1.89133
-1.99814
-2.09692
-1.88938
-1.96955
-2.04008
-1.86455
-1.90771
-1.93419
-1.94506
-29.6766
-30.051
-30.8691
-32.2976
-34.7159
-39.0485
-48.008
-69.211
11.6995
-13.5844
-34.844
10.8615
-7.47511
-23.4324
9.17707
-4.97721
-18.1085
12.8347
2.42155
-3.63021
-9.96405
3.72064
-2.18018
-7.30167
2.48774
-1.82583
-5.44212
1.12127
-1.71672
-3.75042
-6.46984
0.984559
-1.769
-4.03866
0.193697
-1.67506
-3.25067
-0.390701
-1.71909
-2.90118
-0.385751
-1.28615
-1.79723
-2.28345
-1.41934
-1.83617
-2.17955
-1.63359
-1.90388
-2.1192
-1.81359
-1.97748
-2.10239
-2.27303
-1.81717
-1.99367
-2.14705
-1.83585
-1.96643
-2.07916
-1.82067
-1.8992
-1.93133
-1.9433
-29.6975
-30.0758
-30.9036
-32.3541
-34.8295
-39.3589
-49.5121
-87.0791
29.3035
-13.0451
-45.5603
21.7733
-7.20372
-31.239
17.0973
-4.88528
-25.199
20.1024
2.98909
-3.77868
-13.2713
7.04766
-2.09443
-9.67833
4.91554
-1.75023
-7.0434
2.77379
-1.60073
-3.8635
-8.1958
2.70644
-1.71039
-5.06465
1.24606
-1.64293
-3.95319
0.327896
-1.70499
-3.48844
0.220322
-1.23691
-1.80389
-2.501
-1.19732
-1.82802
-2.31767
-1.49013
-1.89764
-2.19882
-1.7299
-1.97142
-2.10925
-2.3793
-1.71071
-1.9906
-2.22098
-1.75982
-1.96436
-2.13728
-1.75975
-1.89356
-1.92966
-1.94227
)
;

boundaryField
{
    left
    {
        type            calculated;
        value           nonuniform List<scalar> 
32
(
-20.2159
-20.2938
-20.4416
-20.6512
-20.9153
-21.2274
-21.5815
-21.9717
-22.3927
-22.8389
-23.3047
-23.7847
-24.2732
-24.7645
-25.2532
-25.7337
-26.2008
-26.6494
-27.0752
-27.4743
-27.8432
-28.1795
-28.4814
-28.7479
-28.9786
-29.1742
-29.3355
-29.4643
-29.5625
-29.6324
-29.6766
-29.6975
)
;
    }
    right
    {
        type            calculated;
        value           nonuniform List<scalar> 
32
(
-2.11538
-2.11405
-2.11153
-2.10799
-2.10359
-2.09845
-2.09271
-2.08647
-2.07981
-2.07283
-2.06558
-2.05814
-2.05055
-2.04285
-2.0351
-2.02733
-2.01957
-2.01187
-2.00427
-1.99681
-1.98955
-1.98256
-1.9759
-1.96966
-1.96391
-1.95876
-1.95426
-1.95048
-1.94742
-1.94506
-1.9433
-1.94227
)
;
    }
    interface
    {
        type            calculated;
        value           nonuniform List<scalar> 
64
(
-29.7025
-30.0817
-30.9118
-32.3678
-34.8571
-39.4379
-50.0003
-97.5156
39.6737
-12.8667
-51.9119
28.1746
-7.11717
-35.8618
21.7485
-4.85791
-29.3967
24.3447
3.1762
-3.83637
-15.2198
9.00052
-2.0673
-11.0876
6.33761
-1.72642
-7.995
3.73838
-1.56154
-3.90258
-9.20858
3.71809
-1.69142
-5.67413
1.86226
-1.63278
-4.37023
0.749036
-1.7007
-3.83686
0.573578
-1.22078
-1.80686
-2.62971
-1.06742
-1.82544
-2.39996
-1.4064
-1.89565
-2.24641
-1.68118
-1.96934
-2.11158
-2.44169
-1.64819
-1.98959
-2.26486
-1.71532
-1.9637
-2.17187
-1.72436
-1.89173
-1.92918
-1.94199
)
;
    }
    bottom
    {
        type            calculated;
        value           nonuniform List<scalar> 
64
(
-20.1957
-20.0997
-19.9088
-19.6253
-19.2528
-18.7963
-18.2625
-17.66
-16.9985
-16.2892
-15.5439
-14.7748
-13.9937
-13.2116
-12.4385
-11.6832
-10.9528
-10.2529
-9.58782
-8.96023
-8.3717
-7.82273
-7.31295
-6.8413
-6.40625
-6.00591
-5.63819
-5.3009
-4.99184
-4.70884
-4.44989
-4.21308
-3.99668
-3.79911
-3.61896
-3.45494
-3.30588
-3.17071
-3.04843
-2.93809
-2.83882
-2.74973
-2.67002
-2.59887
-2.53553
-2.47925
-2.42933
-2.38514
-2.34605
-2.31151
-2.28103
-2.25414
-2.23046
-2.20964
-2.1914
-2.17548
-2.16171
-2.14991
-2.13997
-2.1318
-2.12533
-2.12052
-2.11732
-2.11573
)
;
    }
    defaultFaces
    {
        type            empty;
    }
}


// ************************************************************************* //
