/*--------------------------------*- C++ -*----------------------------------*\
| =========                 |                                                 |
| \\      /  F ield         | OpenFOAM: The Open Source CFD Toolbox           |
|  \\    /   O peration     | Version:  5.x                                   |
|   \\  /    A nd           | Web:      www.OpenFOAM.org                      |
|    \\/     M anipulation  |                                                 |
\*---------------------------------------------------------------------------*/
FoamFile
{
    version     2.0;
    format      ascii;
    class       volScalarField;
    location    "6.4";
    object      gradTx;
}
// * * * * * * * * * * * * * * * * * * * * * * * * * * * * * * * * * * * * * //

dimensions      [0 -1 0 1 0 0 0];

internalField   nonuniform List<scalar> 
2048
(
0.0220617
0.0659387
0.109052
0.150826
0.190604
0.227659
0.261233
0.290598
0.315135
0.334395
0.348148
0.356403
0.359388
0.357523
0.351366
0.341565
0.328812
0.3138
0.297189
0.279582
0.261506
0.243404
0.225628
0.208447
0.192053
0.176574
0.162079
0.148596
0.136112
0.124591
0.113974
0.104192
0.0951702
0.0868368
0.0791248
0.0719766
0.0653437
0.0591873
0.0534769
0.0481885
0.0433033
0.0388059
0.0346826
0.0309195
0.0275019
0.0244134
0.0216352
0.0191467
0.0169256
0.0149481
0.0131896
0.0116254
0.0102305
0.00898076
0.00785297
0.00682564
0.00587923
0.00499652
0.00416273
0.00336546
0.00259458
0.00184189
0.00110087
0.000366276
0.0654242
0.195563
0.323496
0.447534
0.56573
0.675901
0.775754
0.86308
0.935988
0.993114
1.03377
1.05798
1.06646
1.06048
1.04174
1.0122
0.973926
0.928999
0.879393
0.826905
0.773104
0.719296
0.666524
0.615573
0.567006
0.521185
0.478314
0.438461
0.401589
0.367576
0.336247
0.30739
0.28078
0.256199
0.233448
0.212356
0.19278
0.174605
0.157743
0.142125
0.127696
0.114412
0.102233
0.0911205
0.081031
0.0719158
0.0637198
0.0563816
0.0498349
0.0440091
0.0388313
0.0342276
0.0301239
0.0264484
0.0231322
0.0201113
0.0173277
0.0147304
0.0122757
0.0099272
0.00765496
0.00543517
0.00324893
0.00108105
0.107428
0.321186
0.531508
0.735686
0.93052
1.11234
1.27725
1.42143
1.54163
1.63549
1.70184
1.74078
1.75354
1.74236
1.7101
1.66011
1.59586
1.52083
1.43832
1.35129
1.26233
1.1736
1.08676
1.00309
0.923483
0.848497
0.778438
0.713398
0.653293
0.597907
0.546932
0.500003
0.456739
0.416772
0.37977
0.345451
0.313583
0.283984
0.25651
0.231054
0.207532
0.185875
0.166023
0.147915
0.131482
0.116646
0.103315
0.0913894
0.0807594
0.0713087
0.0629171
0.0554625
0.0488231
0.0428799
0.0375193
0.0326358
0.028134
0.0239303
0.0199532
0.0161437
0.0124537
0.00884501
0.00528856
0.00176014
0.148355
0.443691
0.734671
1.0177
1.28835
1.54141
1.77115
1.97196
2.13899
2.26879
2.35966
2.41181
2.42715
2.40898
2.36151
2.28954
2.19805
2.09197
1.97592
1.85407
1.73002
1.60671
1.48643
1.37086
1.26117
1.15809
1.06197
0.972899
0.890727
0.815117
0.745607
0.681661
0.622725
0.568273
0.517839
0.471032
0.427537
0.38711
0.349564
0.314758
0.282587
0.252966
0.225819
0.201068
0.178623
0.158378
0.140207
0.12397
0.109515
0.0966813
0.0853008
0.0752042
0.0662221
0.0581889
0.0509464
0.0443478
0.0382608
0.0325702
0.0271783
0.0220048
0.0169851
0.0120684
0.00721849
0.00240327
0.188364
0.563595
0.933978
1.29521
1.64168
1.96645
2.26174
2.51977
2.73379
2.89902
3.0132
3.07678
3.09251
3.06497
2.99993
2.90379
2.78314
2.64443
2.49367
2.33626
2.17679
2.01897
1.86564
1.71884
1.57993
1.44973
1.32864
1.21669
1.11363
1.01897
0.932077
0.852209
0.778619
0.71061
0.647578
0.589028
0.534569
0.483906
0.436816
0.393137
0.352748
0.315559
0.281485
0.250439
0.222312
0.196973
0.174261
0.153998
0.135988
0.120024
0.105893
0.0933767
0.0822591
0.0723273
0.0633781
0.0552229
0.0476931
0.0406423
0.0339481
0.0275109
0.0212512
0.0151081
0.00904058
0.00301106
0.22749
0.681058
1.12986
1.56913
1.9921
2.38995
2.75243
3.06909
3.3308
3.5312
3.66744
3.74034
3.75379
3.71397
3.62842
3.50536
3.3531
3.1797
2.99264
2.79856
2.60307
2.41061
2.2245
2.04703
1.8797
1.72336
1.57838
1.44469
1.32192
1.20943
1.10633
1.01167
0.924471
0.843848
0.769055
0.6995
0.634729
0.574405
0.518283
0.466186
0.417993
0.373613
0.332967
0.295962
0.262479
0.23236
0.20541
0.18141
0.16012
0.141286
0.124649
0.109945
0.0969077
0.0852779
0.0748055
0.0652596
0.0564345
0.048154
0.040272
0.0326715
0.0252608
0.0179707
0.0107591
0.00358492
0.265656
0.795906
1.32222
1.83969
2.34048
2.81363
3.2459
3.62344
3.93414
4.16967
4.32658
4.40633
4.41434
4.35876
4.24926
4.09605
3.90932
3.69879
3.4735
3.2414
3.00911
2.78178
2.56308
2.35551
2.16055
1.97903
1.81121
1.65694
1.51569
1.38658
1.26851
1.16022
1.06047
0.968179
0.882454
0.802614
0.728159
0.658727
0.59406
0.533979
0.47837
0.427155
0.380272
0.337633
0.299111
0.264522
0.233637
0.20619
0.181895
0.160455
0.141562
0.124905
0.11017
0.0970485
0.0852416
0.0744746
0.0645044
0.0551251
0.0461689
0.0375036
0.0290276
0.0206665
0.0123804
0.00412693
0.302671
0.907635
1.51044
2.10649
2.68699
3.23857
3.74425
4.18588
4.54746
4.81823
4.99421
5.07788
5.07675
5.00145
4.8641
4.67714
4.45271
4.20233
3.93662
3.66495
3.395
3.13253
2.8815
2.64439
2.42263
2.21689
2.02732
1.85362
1.6951
1.55066
1.41887
1.29813
1.18692
1.0839
0.98805
0.898618
0.815077
0.73706
0.664307
0.596648
0.533983
0.476263
0.423456
0.375492
0.33224
0.293488
0.258966
0.228361
0.201338
0.177552
0.156652
0.138279
0.122071
0.107667
0.0947168
0.0828997
0.0719342
0.0615855
0.0516656
0.0420298
0.0325697
0.0232085
0.0139121
0.00463959
0.338236
1.01543
1.69343
2.3685
3.03113
3.66522
4.24915
4.75912
5.17411
5.48037
5.67348
5.75758
5.74299
5.64348
5.474
5.24939
4.98383
4.69063
4.38213
4.06923
3.76071
3.46289
3.17983
2.91386
2.66616
2.4372
2.22695
2.03499
1.86045
1.70197
1.55776
1.42582
1.30422
1.1914
1.08619
0.987821
0.895755
0.809642
0.729232
0.65437
0.584978
0.521053
0.46261
0.409613
0.361929
0.319316
0.281454
0.247977
0.218498
0.192625
0.169963
0.15011
0.132653
0.117176
0.103275
0.0905779
0.0787648
0.0675723
0.0567946
0.0462773
0.035908
0.0256111
0.0153625
0.00512563
0.37196
1.11819
1.86959
2.62408
3.37177
4.0935
4.76187
5.34571
5.81733
6.1593
6.36712
6.44747
6.41445
6.28572
6.07951
5.81318
5.5029
5.16376
4.80994
4.45406
4.10611
3.77284
3.4582
3.16416
2.89148
2.64031
2.41047
2.2014
2.01208
1.8409
1.68563
1.54374
1.41285
1.29112
1.17729
1.07058
0.970502
0.876746
0.789079
0.707357
0.631535
0.561669
0.49785
0.440095
0.38827
0.342093
0.301186
0.265118
0.233448
0.205739
0.181555
0.160452
0.141969
0.12563
0.11097
0.0975612
0.0850439
0.0731281
0.0615925
0.0502757
0.039065
0.0278899
0.0167403
0.0055878
0.40336
1.21454
2.03692
2.871
3.70711
4.52279
5.28343
5.94814
6.48038
6.85816
7.07758
7.14911
7.09194
6.92854
6.68079
6.36857
6.00994
5.62164
5.21981
4.81913
4.43097
4.06235
3.7168
3.39562
3.09899
2.82667
2.57828
2.35322
2.15037
1.96787
1.80297
1.65244
1.51334
1.38356
1.26177
1.14726
1.03965
0.938668
0.844112
0.755847
0.673856
0.598274
0.529308
0.467051
0.41137
0.361926
0.318264
0.279882
0.246278
0.216975
0.191499
0.169372
0.150082
0.133092
0.117863
0.103907
0.0908243
0.078299
0.0660979
0.0540566
0.0420644
0.0300602
0.0180541
0.00602867
0.431886
1.30289
2.19296
3.10643
4.03471
4.95192
5.81462
6.56904
7.16666
7.58002
7.80698
7.8636
7.77573
7.57178
7.27757
6.91538
6.50484
6.06408
5.61137
5.16401
4.73501
4.33141
3.95584
3.60865
3.2892
2.99678
2.73088
2.4909
2.27573
2.08334
1.91032
1.75252
1.60629
1.46926
1.3401
1.21827
1.10353
0.995712
0.894614
0.800098
0.712161
0.631043
0.557122
0.490605
0.43135
0.378936
0.332811
0.292383
0.257093
0.226423
0.199875
0.176939
0.157062
0.13963
0.124021
0.109679
0.0961615
0.0831326
0.0703508
0.0576519
0.0449299
0.0321372
0.0193112
0.0064504
0.456941
1.38148
2.33495
3.327
4.35139
5.37915
6.35607
7.21128
7.87991
8.32796
8.55717
8.59153
8.46552
8.2148
7.86928
7.45324
6.98744
6.49088
5.98414
5.48814
5.01791
4.58003
4.17565
3.8038
3.46275
3.15124
2.86879
2.61488
2.38858
2.18777
2.00828
1.84465
1.69234
1.54877
1.41275
1.28397
1.16248
1.04819
0.940876
0.840381
0.746685
0.660155
0.581432
0.510885
0.448342
0.393258
0.344958
0.302749
0.266004
0.234181
0.206766
0.183229
0.162977
0.145317
0.129517
0.114942
0.101112
0.0876769
0.0743906
0.0610934
0.0476847
0.0341347
0.0205177
0.00685449
0.477905
1.44843
2.45982
3.52877
4.65328
5.80206
6.90826
7.87821
8.62435
9.10508
9.32964
9.33299
9.16042
8.85651
8.45506
7.98165
7.45763
6.90189
6.33759
5.79081
5.27929
4.80831
4.37666
3.98171
3.62036
3.29075
2.99261
2.72564
2.48928
2.28162
2.09747
1.92955
1.77217
1.62268
1.48018
1.34475
1.21683
1.0964
0.98319
0.876983
0.777674
0.685788
0.602367
0.528016
0.462481
0.405034
0.354851
0.311115
0.273132
0.240352
0.212257
0.188312
0.167899
0.150227
0.134423
0.119761
0.105733
0.091979
0.0782554
0.0644123
0.0503515
0.0360648
0.0216777
0.00724149
0.494171
1.50188
2.56435
3.70736
4.93568
6.2175
7.47154
8.57384
9.40487
9.91447
10.1255
10.0875
9.85889
9.49538
9.03383
8.50004
7.91547
7.29714
6.67105
6.07112
5.51877
5.01644
4.55939
4.14316
3.76286
3.41602
3.10295
2.82365
2.57817
2.36528
2.17858
2.00802
1.84646
1.69156
1.54284
1.40093
1.26686
1.14064
1.02185
0.910203
0.80539
0.708113
0.620042
0.542117
0.473912
0.414417
0.362644
0.317627
0.278602
0.245041
0.216433
0.192258
0.171894
0.154436
0.138818
0.124202
0.110079
0.0960835
0.0819807
0.0676387
0.0529527
0.0379375
0.0227922
0.00761067
0.505179
1.54004
2.64525
3.85797
5.19307
6.62136
8.04605
9.30321
10.2273
10.7591
10.9455
10.8541
10.5587
10.1295
9.60438
9.00777
8.36128
7.67695
6.98374
6.32794
5.73594
5.20477
4.72448
4.28905
3.89124
3.52783
3.20049
2.90939
2.65546
2.4391
2.25232
2.08094
1.91593
1.75597
1.60116
1.4528
1.31286
1.18118
1.05713
0.940358
0.830114
0.727287
0.634546
0.553305
0.482782
0.421564
0.368498
0.322436
0.282539
0.248352
0.219377
0.195128
0.175026
0.158025
0.142781
0.128331
0.114202
0.100033
0.0855986
0.0708017
0.0555104
0.0397603
0.0238587
0.00795963
0.510453
1.56129
2.69937
3.97554
5.41905
7.00833
8.63166
10.0727
11.0985
11.6414
11.7898
11.6313
11.2568
10.7567
10.1654
9.5041
8.79577
8.04207
7.27468
6.55972
5.93047
5.37387
4.87265
4.42043
4.00656
3.62695
3.28594
2.98333
2.72126
2.50329
2.31952
2.1493
1.98129
1.81645
1.65554
1.50059
1.35505
1.21832
1.08929
0.967787
0.852155
0.743443
0.645931
0.561686
0.489254
0.426634
0.372582
0.3257
0.285069
0.250388
0.221168
0.196973
0.177347
0.161074
0.146397
0.132207
0.118152
0.103864
0.0891355
0.0739298
0.0580478
0.0415371
0.0248698
0.00828383
0.509637
1.56433
2.72382
4.05489
5.60632
7.37166
9.22769
10.8907
12.0271
12.5632
12.6577
12.4173
11.9493
11.3744
10.7158
9.98801
9.22024
8.39394
7.54252
6.76443
6.10213
5.52462
5.00465
4.53848
4.11007
3.7141
3.36005
3.04603
2.77547
2.55791
2.3811
2.21424
2.04315
1.87351
1.70636
1.54443
1.39367
1.2523
1.11856
0.992857
0.871867
0.756679
0.654195
0.567366
0.493502
0.429789
0.375068
0.327585
0.28631
0.251255
0.221886
0.197832
0.178903
0.163672
0.149756
0.135884
0.121972
0.107614
0.092611
0.0770514
0.060591
0.0432683
0.025812
0.00857611
0.502526
1.54827
2.71617
4.09093
5.7467
7.70272
9.83255
11.7682
13.0237
13.5245
13.5483
13.21
12.6308
11.9802
11.2546
10.458
9.63674
8.73496
7.78539
6.93924
6.25096
5.65839
5.12115
4.64455
4.2032
3.78988
3.42369
3.09814
2.81773
2.60279
2.4382
2.2771
2.10206
1.92763
1.75402
1.58435
1.4289
1.28343
1.14511
1.01598
0.889669
0.767041
0.659267
0.570454
0.495728
0.43118
0.376137
0.328264
0.286371
0.251054
0.221609
0.197725
0.179719
0.165915
0.152958
0.139405
0.125704
0.111316
0.096034
0.080196
0.0631714
0.044949
0.026664
0.0088262
0.489086
1.51268
2.67464
4.07895
5.83128
7.99058
10.443
12.7198
14.1014
14.5227
14.4598
14.0078
13.2944
12.572
11.7816
10.9115
10.0483
9.06897
8.00055
7.08031
6.37745
5.77715
5.22254
4.74015
4.28762
3.85455
3.47783
3.14051
2.84732
2.63738
2.49223
2.33953
2.1583
1.97926
1.79895
1.62017
1.46094
1.31202
1.16897
1.03763
0.906085
0.774494
0.660984
0.571077
0.496175
0.430938
0.375972
0.327924
0.28534
0.249889
0.220423
0.196649
0.179802
0.167919
0.156116
0.142795
0.129385
0.115001
0.0993985
0.0833961
0.0658296
0.0465674
0.0273955
0.00902031
0.469468
1.45769
2.59828
4.01488
5.85062
8.22153
11.0534
13.7651
15.2773
15.5504
15.3903
14.8103
13.9303
13.1482
12.2976
11.3442
10.4595
9.40185
8.18389
7.18235
6.4829
5.88382
5.30858
4.82706
4.3654
3.90787
3.52366
3.17435
2.86304
2.66066
2.54504
2.40355
2.21175
2.02882
1.84169
1.65147
1.49003
1.33847
1.19002
1.05837
0.921793
0.77889
0.659057
0.569405
0.49514
0.429153
0.374768
0.326771
0.283275
0.247869
0.218427
0.19457
0.179129
0.16982
0.159363
0.146047
0.133049
0.118707
0.102675
0.0866897
0.0686207
0.048102
0.027965
0.009141
0.444007
1.384
2.48707
3.89569
5.79508
8.37867
11.6537
14.9305
16.573
16.593
16.3382
15.6192
14.5248
13.7086
12.8053
11.7484
10.8766
9.74235
8.32929
7.23816
6.56987
5.98254
5.3779
4.90743
4.43922
3.94873
3.56265
3.20147
2.863
2.67094
2.59912
2.47173
2.26164
2.0768
1.883
1.67742
1.51649
1.36334
1.20783
1.07888
0.937691
0.779904
0.653043
0.565679
0.493007
0.425841
0.372733
0.325045
0.280181
0.245112
0.215744
0.191417
0.177636
0.171794
0.16286
0.149111
0.136737
0.122483
0.105802
0.0901244
0.0716212
0.0495171
0.0283182
0.00916738
0.413207
1.29289
2.34207
3.71968
5.65545
8.44152
12.2275
16.2517
18.0172
17.6249
17.3033
16.4403
15.0582
14.2555
13.3102
12.1115
11.3086
10.1032
8.42763
7.23807
6.6428
6.07912
5.42722
4.984
4.51264
3.9746
3.5968
3.22453
2.84446
2.66557
2.65787
2.54739
2.30616
2.12382
1.92399
1.6966
1.5408
1.38742
1.22151
1.10004
0.954994
0.776966
0.642298
0.56026
0.490271
0.420897
0.370101
0.323037
0.275982
0.241752
0.212539
0.187066
0.175203
0.174071
0.166812
0.151864
0.1405
0.126399
0.108664
0.0937634
0.0749386
0.0507559
0.0283874
0.00907588
0.377722
1.18613
2.16542
3.48686
5.42359
8.38604
12.7486
17.7762
19.6478
18.6034
18.2887
17.2854
15.5012
14.795
13.8223
12.413
11.7683
10.5027
8.46548
7.16927
6.70889
6.18169
5.45026
5.06048
4.59055
3.98081
3.62882
3.24749
2.80348
2.64064
2.72594
2.63486
2.34192
2.17081
1.96638
1.70666
1.56378
1.4119
1.22946
1.123
0.975356
0.769143
0.625938
0.553684
0.487583
0.41402
0.367153
0.321115
0.270483
0.237959
0.209041
0.18133
0.171634
0.176955
0.171477
0.154081
0.144413
0.130563
0.111073
0.0976945
0.0787232
0.0517307
0.0280913
0.00884173
0.338313
1.06594
1.96029
3.1992
5.0934
8.18496
13.1766
19.5678
21.5153
19.462
19.3039
18.1762
15.8109
15.3391
14.3581
12.6205
12.2735
10.9662
8.42333
7.01511
6.77916
6.30137
5.43618
5.14209
4.67985
3.95951
3.66253
3.27608
2.73456
2.59057
2.80968
2.73985
2.36325
2.21927
2.01276
1.70394
1.58671
1.43854
1.22903
1.14932
1.00102
0.755002
0.602792
0.546746
0.485802
0.404621
0.364245
0.319761
0.263308
0.233949
0.205566
0.173939
0.166631
0.180853
0.177196
0.155382
0.148596
0.13514
0.11273
0.102043
0.0831831
0.052308
0.0273368
0.00844125
0.295816
0.934862
1.7308
2.86078
4.66186
7.80899
13.4505
21.7107
23.688
20.0998
20.3684
19.1476
15.9239
15.9087
14.9437
12.6845
12.8495
11.529
8.27332
6.75434
6.86974
6.45328
5.36749
5.23638
4.7902
3.8982
3.70343
3.31842
2.63022
2.50758
2.9177
2.86992
2.36115
2.27166
2.06702
1.68281
1.61162
1.46996
1.21606
1.18112
1.03501
0.73241
0.57136
0.540585
0.486056
0.391688
0.361861
0.319624
0.253828
0.230019
0.202557
0.164519
0.159765
0.186308
0.184419
0.155172
0.153241
0.14038
0.113181
0.106989
0.0886024
0.052289
0.0260234
0.00785497
0.251094
0.795628
1.48178
2.47786
4.13018
7.22893
13.4809
24.3154
26.2577
20.3687
21.5181
20.2537
15.7484
16.5373
15.6181
12.5313
13.5316
12.2382
7.97632
6.36049
7.00338
6.65771
5.21741
5.35441
4.93513
3.77794
3.75936
3.38571
2.48044
2.38112
3.06148
3.03506
2.32207
2.33193
2.13477
1.63493
1.64168
1.50992
1.18431
1.22135
1.08136
0.698292
0.529785
0.536793
0.489822
0.373614
0.360678
0.321575
0.241049
0.226584
0.200613
0.152567
0.150432
0.194037
0.193744
0.152556
0.158649
0.146659
0.111755
0.112797
0.0953623
0.0513829
0.0240506
0.00707125
0.205002
0.651018
1.21858
2.05864
3.50478
6.41931
13.1395
27.5251
29.3482
20.0567
22.8126
21.5734
15.1525
17.2766
16.4382
12.0544
14.3693
13.1564
7.47838
5.80124
7.21111
6.94172
4.94636
5.51226
5.1334
3.57088
3.84155
3.49304
2.27206
2.19716
3.25612
3.24848
2.22627
2.40631
2.22404
1.5482
1.68162
1.56381
1.12462
1.27414
1.14533
0.64832
0.475838
0.537532
0.49902
0.347982
0.361663
0.32679
0.223487
0.22423
0.200537
0.137425
0.137809
0.204977
0.205966
0.14623
0.165283
0.154514
0.107487
0.119843
0.103965
0.0491719
0.0213309
0.00609009
0.158345
0.503737
0.946713
1.61297
2.79817
5.36375
12.2463
31.5232
33.1253
18.8678
24.3459
23.2185
13.9508
18.2025
17.4847
11.1031
15.4312
14.3646
6.70642
5.03822
7.5339
7.3409
4.49781
5.73305
5.4105
3.23735
3.96592
3.66018
1.98806
1.93741
3.5211
3.52759
2.04577
2.50422
2.3459
1.40542
1.73838
1.63911
1.02403
1.34519
1.23372
0.576541
0.406936
0.545648
0.516136
0.311291
0.366195
0.336836
0.199
0.223785
0.203379
0.118252
0.120801
0.220331
0.222142
0.134354
0.173833
0.164707
0.0990145
0.128668
0.115062
0.0450677
0.0178077
0.00492651
0.111852
0.356295
0.671625
1.15171
2.02914
4.0625
10.5543
36.5414
37.8093
16.3966
26.2587
25.342
11.8878
19.4239
18.8682
9.46942
16.8114
15.9656
5.56326
4.02706
8.02434
7.90179
3.79316
6.04949
5.80059
2.72223
4.15477
3.91238
1.60685
1.57853
3.88112
3.89511
1.74199
2.63954
2.51531
1.1828
1.82188
1.74598
0.864534
1.44239
1.35514
0.474938
0.320202
0.564781
0.544357
0.258645
0.376225
0.353776
0.16459
0.226415
0.210472
0.0939887
0.0979806
0.241621
0.243668
0.114393
0.185298
0.178278
0.0844671
0.140032
0.129477
0.0382584
0.0134798
0.00361237
0.0661576
0.210922
0.398369
0.686072
1.22227
2.54252
7.73094
42.8684
43.6908
12.1
28.7542
28.1477
8.61728
21.0921
20.7379
6.87218
18.6375
18.0874
3.92196
2.71803
8.74804
8.68459
2.72583
6.50698
6.34855
1.95076
4.43892
4.28111
1.10154
1.09125
4.36688
4.38053
1.2629
2.83211
2.75201
0.848034
1.94592
1.89799
0.621801
1.57645
1.52028
0.33293
0.212574
0.599462
0.587745
0.183367
0.394474
0.380283
0.116165
0.233737
0.223469
0.0633381
0.0675246
0.270733
0.272369
0.0829269
0.201079
0.19662
0.0613206
0.154986
0.148242
0.0276454
0.00843458
0.00219573
0.0217903
0.0695019
0.131391
0.226751
0.406352
0.870345
3.33796
50.8586
51.1474
5.26381
32.1163
31.9006
3.68044
23.4127
23.2898
2.93953
21.0798
20.8861
1.61968
1.0573
9.78457
9.76643
1.15455
7.16718
7.11222
0.823754
4.86022
4.80455
0.439158
0.439507
5.01581
5.02176
0.53981
3.1095
3.08147
0.358207
2.12932
2.11279
0.26357
1.76179
1.74214
0.136813
0.0809768
0.655159
0.651433
0.0765864
0.424662
0.419761
0.0482789
0.247966
0.244368
0.0247366
0.0271481
0.309966
0.310615
0.0354428
0.223101
0.221555
0.0262399
0.174962
0.172616
0.0117714
0.00288867
0.000736488
)
;

boundaryField
{
    left
    {
        type            calculated;
        value           uniform 0;
    }
    right
    {
        type            calculated;
        value           uniform 0;
    }
    interface
    {
        type            calculated;
        value           nonuniform List<scalar> 
64
(
0.0217903
0.0695019
0.131391
0.226751
0.406352
0.870345
3.33796
50.8586
51.1474
5.26381
32.1163
31.9006
3.68044
23.4127
23.2898
2.93953
21.0798
20.8861
1.61968
1.0573
9.78457
9.76643
1.15455
7.16718
7.11222
0.823754
4.86022
4.80455
0.439158
0.439507
5.01581
5.02176
0.53981
3.1095
3.08147
0.358207
2.12932
2.11279
0.26357
1.76179
1.74214
0.136813
0.0809768
0.655159
0.651433
0.0765864
0.424662
0.419761
0.0482789
0.247966
0.244368
0.0247366
0.0271481
0.309966
0.310615
0.0354428
0.223101
0.221555
0.0262399
0.174962
0.172616
0.0117714
0.00288867
0.000736488
)
;
    }
    bottom
    {
        type            calculated;
        value           nonuniform List<scalar> 
64
(
0.0220617
0.0659387
0.109052
0.150826
0.190604
0.227659
0.261233
0.290598
0.315135
0.334395
0.348148
0.356403
0.359388
0.357523
0.351366
0.341565
0.328812
0.3138
0.297189
0.279582
0.261506
0.243404
0.225628
0.208447
0.192053
0.176574
0.162079
0.148596
0.136112
0.124591
0.113974
0.104192
0.0951702
0.0868368
0.0791248
0.0719766
0.0653437
0.0591873
0.0534769
0.0481885
0.0433033
0.0388059
0.0346826
0.0309195
0.0275019
0.0244134
0.0216352
0.0191467
0.0169256
0.0149481
0.0131896
0.0116254
0.0102305
0.00898076
0.00785297
0.00682564
0.00587923
0.00499652
0.00416273
0.00336546
0.00259458
0.00184189
0.00110087
0.000366276
)
;
    }
    defaultFaces
    {
        type            empty;
    }
}


// ************************************************************************* //
