/*--------------------------------*- C++ -*----------------------------------*\
| =========                 |                                                 |
| \\      /  F ield         | OpenFOAM: The Open Source CFD Toolbox           |
|  \\    /   O peration     | Version:  5.x                                   |
|   \\  /    A nd           | Web:      www.OpenFOAM.org                      |
|    \\/     M anipulation  |                                                 |
\*---------------------------------------------------------------------------*/
FoamFile
{
    version     2.0;
    format      ascii;
    class       volScalarField;
    location    "5.2";
    object      gradTx;
}
// * * * * * * * * * * * * * * * * * * * * * * * * * * * * * * * * * * * * * //

dimensions      [0 -1 0 1 0 0 0];

internalField   nonuniform List<scalar> 
2048
(
0.0218615
0.0653375
0.108052
0.14943
0.188816
0.225486
0.258688
0.287697
0.311896
0.330842
0.344308
0.352303
0.355058
0.352991
0.346661
0.336714
0.32384
0.30873
0.292041
0.274376
0.25626
0.238133
0.22035
0.203178
0.186812
0.171378
0.156951
0.143557
0.131188
0.119808
0.10936
0.0997773
0.0909843
0.0829079
0.0754793
0.0686374
0.0623295
0.0565117
0.0511476
0.0462078
0.0416677
0.0375068
0.0337063
0.0302483
0.0271145
0.0242855
0.0217402
0.0194565
0.0174109
0.015579
0.0139363
0.012458
0.0111201
0.00989909
0.00877326
0.00772255
0.0067293
0.00577836
0.00485732
0.00395636
0.00306811
0.00218738
0.00131085
0.000436665
0.0648326
0.193785
0.320537
0.443402
0.560436
0.669469
0.768218
0.854486
0.926395
0.982591
1.02239
1.04584
1.05364
1.04706
1.02781
0.997839
0.959209
0.913994
0.864161
0.811503
0.757582
0.703703
0.650907
0.599983
0.551494
0.505809
0.463134
0.423545
0.387009
0.353413
0.322585
0.294316
0.268382
0.244563
0.222652
0.202469
0.183858
0.166689
0.150855
0.136272
0.122868
0.110582
0.0993617
0.089154
0.0799058
0.0715596
0.0640536
0.0573217
0.0512943
0.0458992
0.0410632
0.0367131
0.032777
0.0291856
0.0258739
0.0227823
0.0198585
0.0170576
0.0143428
0.0116853
0.00906369
0.00646277
0.00387307
0.00129008
0.106462
0.318282
0.52667
0.728927
0.921857
1.10181
1.26491
1.40735
1.52591
1.61824
1.6832
1.72088
1.73253
1.72037
1.68729
1.6366
1.57178
1.49628
1.4134
1.3261
1.23695
1.1481
1.06122
0.977596
0.89811
0.823339
0.753596
0.688981
0.629421
0.574711
0.524551
0.478582
0.436424
0.397706
0.362085
0.329261
0.298982
0.271038
0.245258
0.221507
0.199671
0.179657
0.16138
0.144758
0.129706
0.116131
0.103931
0.0929981
0.0832174
0.0744703
0.0666361
0.0595941
0.0532258
0.0474169
0.0420598
0.0370565
0.0323204
0.0277781
0.0233697
0.0190487
0.0147808
0.0105423
0.00631831
0.00210429
0.14703
0.439707
0.728031
1.00842
1.27645
1.52692
1.75415
1.95257
2.11734
2.24502
2.33397
2.3844
2.39822
2.37871
2.33012
2.2572
2.16494
2.05822
1.94168
1.81947
1.69516
1.57169
1.45135
1.33584
1.22631
1.12351
1.02781
0.939316
0.857881
0.783188
0.714789
0.652157
0.594742
0.542012
0.493487
0.448751
0.407459
0.369328
0.334132
0.30169
0.271857
0.24451
0.219542
0.196846
0.176308
0.157801
0.141188
0.126317
0.11303
0.10116
0.0905423
0.0810082
0.0723932
0.0645381
0.057293
0.0505212
0.0441028
0.0379366
0.0319408
0.0260524
0.0202262
0.0144324
0.0086514
0.00288108
0.186696
0.558577
0.925609
1.2835
1.62664
1.94813
2.24024
2.49522
2.70636
2.86891
2.98066
3.04206
3.05587
3.02667
2.96022
2.8629
2.7413
2.60181
2.45045
2.29259
2.1328
1.97478
1.82138
1.67463
1.53591
1.40606
1.28549
1.17424
1.07209
0.978571
0.893064
0.814846
0.743177
0.677352
0.616749
0.56084
0.509194
0.461466
0.417379
0.376719
0.339314
0.305024
0.273724
0.245291
0.219586
0.196453
0.175714
0.157178
0.140641
0.125891
0.112717
0.100904
0.0902414
0.0805243
0.0715601
0.0631732
0.0552101
0.0475425
0.040068
0.032709
0.0254116
0.0181423
0.0108784
0.00362257
0.225496
0.675054
1.11984
1.55508
1.97404
2.36793
2.72655
3.0395
3.29772
3.49489
3.6282
3.69848
3.70964
3.66784
3.58062
3.45618
3.3028
3.1285
2.94075
2.74615
2.55028
2.35759
2.17137
1.99396
1.82685
1.6709
1.52651
1.39364
1.27194
1.16078
1.05933
0.966638
0.881744
0.803757
0.731909
0.665565
0.604219
0.54747
0.495007
0.446586
0.40202
0.361162
0.323881
0.290041
0.259486
0.232029
0.207456
0.185533
0.166009
0.14863
0.133134
0.119264
0.106762
0.0953755
0.084869
0.0750262
0.0656601
0.0566158
0.0477717
0.0390375
0.0303527
0.0216838
0.0130066
0.00433118
0.263353
0.788964
1.31062
1.82341
2.31951
2.78802
3.21574
3.58893
3.89553
4.12727
4.28076
4.35747
4.36284
4.305
4.19359
4.03881
3.85081
3.63929
3.41322
3.18054
2.94784
2.72023
2.50142
2.29389
2.09916
1.91806
1.7509
1.59755
1.45749
1.3299
1.2137
1.10767
1.0106
0.921393
0.839126
0.763071
0.692659
0.627451
0.567104
0.511361
0.460026
0.412955
0.370024
0.331097
0.296002
0.264524
0.23641
0.211378
0.189135
0.169376
0.151799
0.136098
0.121968
0.109112
0.0972442
0.0861083
0.0754822
0.0651853
0.0550785
0.045061
0.0350684
0.0250707
0.0150441
0.00500958
0.300077
0.899808
1.49734
2.08807
2.66321
3.20946
3.70993
4.14653
4.5034
4.76985
4.94193
5.02216
5.01804
4.9402
4.80074
4.61205
4.38624
4.13478
3.86825
3.59596
3.32555
3.06277
2.81159
2.57451
2.35297
2.14768
1.95881
1.78611
1.62889
1.48612
1.3564
1.23821
1.13003
1.03053
0.938654
0.853587
0.774719
0.701585
0.633826
0.571172
0.513434
0.460483
0.412215
0.368505
0.329172
0.293971
0.262605
0.234745
0.210046
0.18816
0.168739
0.151434
0.135893
0.121768
0.108724
0.0964586
0.0847148
0.073287
0.0620204
0.0508066
0.0395798
0.028318
0.0169997
0.00566048
0.335374
1.00678
1.67892
2.34805
3.00467
3.63274
4.21074
4.71502
5.12468
5.42606
5.61481
5.69509
5.6772
5.5749
5.40311
5.17663
4.9096
4.61528
4.30593
3.99238
3.68337
3.38521
3.10197
2.83599
2.58851
2.36001
2.15049
1.95958
1.78642
1.62973
1.48778
1.35863
1.2404
1.13153
1.03082
0.937407
0.850659
0.770103
0.695374
0.626196
0.562392
0.503863
0.450546
0.402341
0.359064
0.320434
0.286105
0.255692
0.228799
0.205032
0.184003
0.165319
0.148583
0.133392
0.119357
0.106125
0.0934033
0.0809618
0.068633
0.0563034
0.0439093
0.0314412
0.0188821
0.00628651
0.368852
1.10878
1.85378
2.60173
3.34274
4.05775
4.71948
5.29693
5.76259
6.09913
6.30214
6.37829
6.34168
6.20994
6.00125
5.73294
5.42113
5.08085
4.72617
4.36964
4.02118
3.68753
3.37266
3.07857
2.80608
2.55537
2.32628
2.11829
1.93041
1.76111
1.60824
1.46936
1.34217
1.22482
1.11602
1.01487
0.920777
0.833273
0.751988
0.676644
0.607077
0.543239
0.485133
0.432707
0.38577
0.344001
0.306993
0.274299
0.245466
0.220059
0.197649
0.177808
0.160092
0.14404
0.129199
0.115162
0.101598
0.0882542
0.0749539
0.0615822
0.0480801
0.0344558
0.0206998
0.00689004
0.400036
1.20444
2.0199
2.84687
3.67565
4.48389
5.23713
5.89474
6.42035
6.79217
7.00633
7.07333
7.0123
6.84568
6.5953
6.28102
5.92082
5.53139
5.12873
4.72742
4.33873
3.9697
3.62385
3.30257
3.00608
2.7342
2.48658
2.26262
2.06125
1.88067
1.71827
1.57094
1.43584
1.31088
1.19466
1.08634
0.985395
0.891383
0.803931
0.722751
0.647692
0.578775
0.51611
0.459714
0.409396
0.364777
0.325373
0.290663
0.260138
0.23332
0.209748
0.188964
0.170481
0.153774
0.138313
0.123629
0.109352
0.0952104
0.0810219
0.0666741
0.0521148
0.0373768
0.0224601
0.00747294
0.428378
1.29218
2.17488
3.08068
4.00096
4.90999
5.7645
6.51104
7.10136
7.50821
7.7295
7.78127
7.68931
7.48195
7.18499
6.82067
6.40855
5.96671
5.51324
5.0653
4.63577
4.23169
3.85575
3.50839
3.18903
2.89702
2.63188
2.39301
2.17933
1.98887
1.8184
1.66394
1.52201
1.39022
1.26719
1.1522
1.04485
0.944738
0.851485
0.764774
0.684456
0.610643
0.543612
0.483486
0.430063
0.382881
0.341361
0.304895
0.272913
0.244901
0.220375
0.198854
0.179814
0.16266
0.146765
0.131588
0.11672
0.101877
0.0868755
0.0716099
0.0560358
0.0402175
0.0241693
0.0080364
0.453286
1.37025
2.31593
3.29979
4.31552
5.33431
6.30219
7.14871
7.80934
8.25034
8.47347
8.50271
8.3724
8.11812
7.76973
7.35151
6.88416
6.3866
5.87923
5.38271
4.91195
4.47353
4.06868
3.69656
3.35553
3.04441
2.76272
2.50992
2.28508
2.08616
1.9092
1.74902
1.60127
1.46338
1.33407
1.21283
1.09946
0.993642
0.894939
0.802986
0.717601
0.639022
0.567776
0.504147
0.447896
0.398441
0.355086
0.317118
0.283902
0.254898
0.229607
0.207542
0.188156
0.170766
0.154626
0.139102
0.123757
0.1083
0.0925519
0.0764193
0.0598643
0.0429897
0.0258312
0.00858063
0.474145
1.4368
2.44003
3.5003
4.61548
5.75448
6.85071
7.81107
8.54847
9.02162
9.23975
9.23773
9.06068
8.75308
8.34866
7.87303
7.34751
6.79091
6.22615
5.67897
5.16692
4.6953
4.26306
3.86771
3.5063
3.17705
2.87967
2.61381
2.37888
2.173
1.99129
1.82686
1.67428
1.53093
1.39575
1.26858
1.14956
1.0384
0.934586
0.837671
0.747375
0.664087
0.588731
0.521818
0.463027
0.411597
0.366687
0.327462
0.293218
0.263406
0.237522
0.215092
0.195567
0.178164
0.161967
0.146237
0.130519
0.114524
0.098086
0.0811314
0.0636204
0.0457027
0.0274472
0.00910462
0.490352
1.48995
2.54395
3.67784
4.89616
6.16734
7.41037
8.50211
9.32362
9.82514
10.0294
9.98587
9.75263
9.38531
8.9207
8.38466
7.79865
7.17966
6.55336
5.9532
5.40029
4.89721
4.4394
4.02261
3.64217
3.29566
2.98335
2.70518
2.46107
2.2498
2.06533
1.89824
1.74172
1.59342
1.45267
1.31978
1.19543
1.0793
0.970718
0.86913
0.774035
0.686006
0.606587
0.536615
0.475593
0.42249
0.37631
0.336065
0.300981
0.270525
0.244197
0.22156
0.202104
0.184926
0.168866
0.153056
0.137055
0.12059
0.103509
0.0857735
0.0673242
0.0483632
0.0290147
0.00960574
0.501353
1.52793
2.62444
3.82764
5.15207
6.56879
7.98134
9.22684
10.1405
10.6638
10.8432
10.7461
10.446
10.0129
9.48462
8.88573
8.23786
7.55314
6.8601
6.20427
5.61168
5.07959
4.59833
4.16214
3.76408
3.401
3.07444
2.7845
2.53191
2.31691
2.13203
1.964
1.80427
1.65139
1.50524
1.36674
1.23736
1.11664
1.00362
0.897679
0.797861
0.704931
0.621429
0.54865
0.485737
0.43127
0.384109
0.343071
0.307308
0.276356
0.249707
0.226992
0.207816
0.191127
0.175404
0.159622
0.143416
0.126534
0.108849
0.0903723
0.0709957
0.0509743
0.0305268
0.0100794
0.506672
1.54913
2.67836
3.94467
5.37685
6.95358
8.56348
9.99163
11.0062
11.5401
11.6813
11.5171
11.1379
10.6337
10.0392
9.37549
8.66584
7.91209
7.14538
6.43068
5.80076
5.24301
4.74058
4.28734
3.8731
3.49384
3.15364
2.85228
2.59153
2.37458
2.19218
2.0251
1.86261
1.70538
1.55386
1.40967
1.27559
1.15068
1.03355
0.923658
0.819157
0.720991
0.633304
0.558025
0.493611
0.438086
0.390241
0.34863
0.312317
0.281
0.254124
0.231421
0.212739
0.196846
0.181668
0.165992
0.149645
0.132391
0.114125
0.094954
0.0746571
0.0535353
0.0319701
0.0105183
0.505956
1.55227
2.70282
4.02378
5.56324
7.31498
9.15611
10.8047
11.929
12.4558
12.543
12.2968
11.8242
11.2451
10.5831
9.85294
9.08384
8.25792
7.40792
6.63044
5.96731
5.38835
4.86689
4.39937
3.97045
3.5749
3.22171
2.90907
2.63989
2.4229
2.24668
2.08262
1.91738
1.75588
1.59892
1.44873
1.31034
1.18169
1.06074
0.947438
0.838269
0.734277
0.642207
0.564842
0.499383
0.443084
0.394872
0.352896
0.316119
0.284561
0.257522
0.234859
0.216894
0.202174
0.187757
0.172216
0.155781
0.13819
0.11935
0.0995455
0.0783353
0.0560407
0.0333236
0.0109125
0.498997
1.53643
2.69541
4.0599
5.7031
7.64441
9.75763
11.6771
12.9195
13.4109
13.4274
13.0834
12.4998
11.8448
11.1156
10.3165
9.49384
8.59298
7.64587
6.8008
6.11136
5.51694
4.97793
4.49952
4.05751
3.64476
3.27948
2.95552
2.6767
2.46174
2.2966
2.13785
1.96907
1.80335
1.64079
1.48395
1.34181
1.20995
1.08537
0.96943
0.855612
0.744828
0.648062
0.569208
0.503246
0.446401
0.398172
0.356036
0.31881
0.287149
0.25998
0.237296
0.220281
0.207212
0.193781
0.178328
0.161858
0.143959
0.124522
0.104176
0.0820649
0.0584785
0.0345569
0.0112482
0.485757
1.50121
2.65436
4.04833
5.78758
7.93099
10.3649
12.6233
13.9909
14.4029
14.3326
13.8753
13.1576
12.4306
11.6365
10.7638
9.89884
8.92105
7.85654
6.93798
6.2334
5.63076
5.07409
4.58928
4.13593
3.70373
3.32789
2.99249
2.70135
2.49065
2.34328
2.19233
2.018
1.84823
1.67988
1.5152
1.3702
1.23578
1.1075
0.990111
0.871695
0.7526
0.650699
0.571251
0.505432
0.448148
0.400319
0.358226
0.320461
0.28888
0.261588
0.238687
0.222867
0.212089
0.199877
0.18434
0.167907
0.149728
0.12962
0.108879
0.0858939
0.0608287
0.0356276
0.0115078
0.466381
1.44673
2.5787
3.98505
5.80726
8.16111
10.9721
13.6628
15.16
15.4243
15.2568
14.6718
13.7881
13.0009
12.1464
11.1903
10.3032
9.24788
8.03595
7.0368
6.33471
5.73266
5.1552
4.67036
4.20774
3.75161
3.36807
3.02115
2.71277
2.50872
2.38848
2.24797
2.0641
1.89095
1.7167
1.54212
1.39576
1.25956
1.12701
1.01004
0.887179
0.757434
0.649826
0.571144
0.506233
0.448388
0.401504
0.359665
0.321105
0.289885
0.262462
0.238946
0.224576
0.216968
0.206208
0.190223
0.173957
0.155533
0.134596
0.113697
0.0898908
0.0630588
0.0364797
0.0116699
0.441196
1.37367
2.46845
3.86701
5.7526
8.31794
11.5695
14.8219
16.4484
16.4607
16.1984
15.4749
14.3777
13.5556
12.648
11.5887
10.7131
9.58209
8.17809
7.09024
6.41775
5.8267
5.21995
4.74484
4.2755
3.78736
3.40145
3.04324
2.70928
2.51442
2.4345
2.30718
2.10671
1.93195
1.75197
1.56397
1.4188
1.28179
1.14351
1.02992
0.902937
0.758995
0.644992
0.569138
0.50602
0.447102
0.401939
0.360587
0.320705
0.29032
0.262758
0.237926
0.225276
0.222068
0.212985
0.195887
0.180042
0.161428
0.139354
0.118685
0.0941535
0.0651185
0.0370415
0.0117091
0.410697
1.28331
2.32462
3.69253
5.6144
8.38114
12.1406
16.1359
17.8846
17.4866
17.1571
16.29
14.9067
14.0968
13.1469
11.9464
11.1375
9.93618
8.27406
7.08883
6.48687
5.91863
5.26523
4.81533
4.34269
3.80863
3.42986
3.06129
2.68835
2.50533
2.48451
2.37305
2.14421
1.97183
1.7867
1.57945
1.43979
1.30322
1.15617
1.05063
0.920151
0.756704
0.635546
0.565609
0.505286
0.444133
0.401873
0.361283
0.319121
0.290378
0.262695
0.23541
0.224752
0.227687
0.220479
0.201143
0.186215
0.167498
0.143734
0.12392
0.0988227
0.0669304
0.0372237
0.0115971
0.375525
1.1774
2.14935
3.4616
5.38458
8.32679
12.6595
17.6521
19.5062
18.4597
18.136
17.1292
15.3462
14.6306
13.653
12.2431
11.5886
10.3281
8.31069
7.02004
6.54908
6.01639
5.28501
4.88538
4.41404
3.81101
3.45586
3.07906
2.64639
2.4779
2.54282
2.44962
2.17354
2.01144
1.82248
1.58644
1.45952
1.32492
1.16349
1.07331
0.940424
0.749624
0.620591
0.561123
0.504679
0.439109
0.401614
0.36213
0.316054
0.29031
0.262589
0.231081
0.222678
0.234232
0.229049
0.205658
0.192558
0.173881
0.147473
0.129514
0.104097
0.0683764
0.0369196
0.0113042
0.336434
1.05815
1.9458
3.17618
5.05707
8.12779
13.0859
19.4339
21.3635
19.3138
19.1443
18.0138
15.6537
15.1687
14.1826
12.4471
12.0841
10.7829
8.26888
6.86761
6.61509
6.13088
5.26884
4.95996
4.49619
3.78709
3.48303
3.10196
2.57834
2.42698
2.61529
2.54218
2.18953
2.05216
1.86166
1.58159
1.4792
1.3485
1.16295
1.09952
0.965934
0.736324
0.598934
0.556514
0.505064
0.431337
0.401577
0.363636
0.310972
0.290452
0.262889
0.224496
0.218585
0.242259
0.239168
0.208885
0.199217
0.180797
0.150164
0.135628
0.110254
0.0692785
0.0360065
0.0108019
0.294249
0.928074
1.71803
2.84032
4.62886
7.75501
13.3593
21.565
23.5243
19.9488
20.2015
18.9786
15.7665
15.7318
14.7615
12.5094
12.6486
11.335
8.12133
6.61077
6.70062
6.27691
5.1999
5.04626
4.59847
3.72505
3.51646
3.13764
2.47728
2.34546
2.70988
2.65772
2.18402
2.09625
1.90779
1.55977
1.50075
1.37636
1.15062
1.13137
0.999612
0.71469
0.569043
0.552979
0.507585
0.419654
0.402331
0.366499
0.303004
0.291267
0.264223
0.215059
0.211811
0.252522
0.251475
0.209977
0.206434
0.188585
0.151191
0.142499
0.117672
0.0693718
0.0343506
0.0100658
0.249827
0.789887
1.47087
2.46022
4.10112
7.17942
13.3907
24.1551
26.08
20.2176
21.3429
20.0771
15.5934
16.3529
15.4284
12.3575
13.317
12.031
7.82965
6.22367
6.82781
6.47431
5.05233
5.15481
4.73391
3.60695
3.56348
3.19665
2.33391
2.22363
2.83717
2.80549
2.14462
2.14732
1.96601
1.51336
1.52715
1.41196
1.12058
1.17177
1.04536
0.681689
0.529002
0.552191
0.513756
0.402239
0.404688
0.371682
0.290808
0.293399
0.267455
0.201973
0.201446
0.266028
0.266821
0.207663
0.214604
0.197754
0.149644
0.150474
0.126863
0.0682682
0.0318164
0.00908005
0.204015
0.64635
1.20961
2.04404
3.48027
6.37571
13.0527
27.3466
29.1536
19.9096
22.6277
21.3876
15.0039
17.0831
16.2397
11.8865
14.1376
12.9323
7.3409
5.67482
7.02687
6.74948
4.78797
5.30093
4.92052
3.40642
3.6346
3.29317
2.13597
2.0486
3.01106
2.99766
2.0533
2.21104
2.04362
1.43127
1.56282
1.46025
1.06416
1.22476
1.10829
0.633073
0.476492
0.556421
0.525565
0.376372
0.409807
0.380508
0.272398
0.297742
0.273743
0.184207
0.18627
0.284099
0.286343
0.200104
0.224344
0.209044
0.144216
0.160055
0.1385
0.0654102
0.0282827
0.00784171
0.157616
0.500148
0.939753
1.60156
2.77868
5.32757
12.1663
31.3217
32.9098
18.7307
24.1489
23.0212
13.8146
17.9974
17.2751
10.9478
15.1779
14.1184
6.58331
4.92684
7.33769
7.13712
4.35222
5.50671
5.18278
3.08585
3.74473
3.44578
1.86761
1.80362
3.24949
3.25027
1.88449
2.29602
2.15074
1.29777
1.61425
1.52812
0.96905
1.29593
1.19499
0.563027
0.408794
0.568655
0.545606
0.338135
0.419339
0.394774
0.244927
0.305542
0.284601
0.160446
0.164678
0.308445
0.311554
0.184706
0.236584
0.223497
0.13307
0.171963
0.153455
0.060012
0.0236661
0.00636495
0.111359
0.353775
0.666691
1.14358
2.01505
4.03525
10.4859
36.3107
37.5676
16.2785
26.0462
25.1295
11.772
19.2033
18.644
9.33637
16.5303
15.6905
5.46142
3.9366
7.81147
7.68254
3.66921
5.80345
5.55345
2.59298
3.9148
3.67821
1.50861
1.46728
3.5752
3.58422
1.6029
2.41493
2.30101
1.09105
1.69065
1.62501
0.818203
1.3929
1.31379
0.463746
0.322822
0.592721
0.577238
0.282053
0.435603
0.416885
0.204428
0.318512
0.301962
0.129043
0.134596
0.341236
0.344448
0.157897
0.252683
0.242542
0.113674
0.187217
0.172838
0.0509881
0.0179557
0.00468457
0.0658777
0.209442
0.395445
0.681236
1.2138
2.52554
7.6813
42.6004
43.4156
12.0134
28.5211
27.9147
8.5336
20.8505
20.494
6.77525
18.3203
17.7743
3.85048
2.65584
8.51207
8.44426
2.636
6.23463
6.07548
1.85693
4.17379
4.01997
1.03374
1.01278
4.01643
4.02662
1.16094
2.58589
2.51248
0.781496
1.80483
1.76348
0.588544
1.52606
1.47507
0.324968
0.215211
0.633377
0.624779
0.200682
0.461805
0.450004
0.145513
0.33899
0.32823
0.0879796
0.0933983
0.385167
0.387636
0.114865
0.274567
0.26809
0.0826177
0.207227
0.198028
0.03687
0.0112591
0.00285711
0.0217017
0.0690176
0.130427
0.225154
0.403541
0.864549
3.31671
50.5429
50.8293
5.22644
31.8552
31.6395
3.64479
23.1422
23.0185
2.8979
20.7155
20.5233
1.59037
1.03249
9.51693
9.4972
1.11617
6.85939
6.80417
0.783595
4.56114
4.50693
0.412004
0.407167
4.60759
4.61226
0.495741
2.83409
2.80841
0.329771
1.97422
1.95997
0.249507
1.70927
1.69142
0.133445
0.0824618
0.696381
0.693729
0.084132
0.502288
0.498221
0.0610225
0.370118
0.366322
0.0348233
0.0378136
0.443532
0.444494
0.0492661
0.30489
0.302638
0.0353925
0.233918
0.230716
0.0157103
0.00386248
0.000958778
)
;

boundaryField
{
    left
    {
        type            calculated;
        value           uniform 0;
    }
    right
    {
        type            calculated;
        value           uniform 0;
    }
    interface
    {
        type            calculated;
        value           nonuniform List<scalar> 
64
(
0.0217017
0.0690176
0.130427
0.225154
0.403541
0.864549
3.31671
50.5429
50.8293
5.22644
31.8552
31.6395
3.64479
23.1422
23.0185
2.8979
20.7155
20.5233
1.59037
1.03249
9.51693
9.4972
1.11617
6.85939
6.80417
0.783595
4.56114
4.50693
0.412004
0.407167
4.60759
4.61226
0.495741
2.83409
2.80841
0.329771
1.97422
1.95997
0.249507
1.70927
1.69142
0.133445
0.0824618
0.696381
0.693729
0.084132
0.502288
0.498221
0.0610225
0.370118
0.366322
0.0348233
0.0378136
0.443532
0.444494
0.0492661
0.30489
0.302638
0.0353925
0.233918
0.230716
0.0157103
0.00386248
0.000958778
)
;
    }
    bottom
    {
        type            calculated;
        value           nonuniform List<scalar> 
64
(
0.0218615
0.0653375
0.108052
0.14943
0.188816
0.225486
0.258688
0.287697
0.311896
0.330842
0.344308
0.352303
0.355058
0.352991
0.346661
0.336714
0.32384
0.30873
0.292041
0.274376
0.25626
0.238133
0.22035
0.203178
0.186812
0.171378
0.156951
0.143557
0.131188
0.119808
0.10936
0.0997773
0.0909843
0.0829079
0.0754793
0.0686374
0.0623295
0.0565117
0.0511476
0.0462078
0.0416677
0.0375068
0.0337063
0.0302483
0.0271145
0.0242855
0.0217402
0.0194565
0.0174109
0.015579
0.0139363
0.012458
0.0111201
0.00989909
0.00877326
0.00772255
0.0067293
0.00577836
0.00485732
0.00395636
0.00306811
0.00218738
0.00131085
0.000436665
)
;
    }
    defaultFaces
    {
        type            empty;
    }
}


// ************************************************************************* //
