/*--------------------------------*- C++ -*----------------------------------*\
| =========                 |                                                 |
| \\      /  F ield         | OpenFOAM: The Open Source CFD Toolbox           |
|  \\    /   O peration     | Version:  5.x                                   |
|   \\  /    A nd           | Web:      www.OpenFOAM.org                      |
|    \\/     M anipulation  |                                                 |
\*---------------------------------------------------------------------------*/
FoamFile
{
    version     2.0;
    format      ascii;
    class       volScalarField;
    location    "5.2";
    object      gradTy;
}
// * * * * * * * * * * * * * * * * * * * * * * * * * * * * * * * * * * * * * //

dimensions      [0 -1 0 1 0 0 0];

internalField   nonuniform List<scalar> 
2048
(
-20.3301
-20.2348
-20.0452
-19.7636
-19.3934
-18.9398
-18.4094
-17.8107
-17.1536
-16.4492
-15.7094
-14.9465
-14.1722
-13.3976
-12.6328
-11.8864
-11.1655
-10.4757
-9.82113
-9.20448
-8.62724
-8.0898
-7.59172
-7.13189
-6.70868
-6.32015
-5.96415
-5.6384
-5.34065
-5.06867
-4.82037
-4.59377
-4.38708
-4.19867
-4.02705
-3.87089
-3.72898
-3.60022
-3.48358
-3.37813
-3.28296
-3.19723
-3.12014
-3.05093
-2.98887
-2.93327
-2.88349
-2.83894
-2.79908
-2.76341
-2.73149
-2.70294
-2.67743
-2.65468
-2.63446
-2.61658
-2.60092
-2.58735
-2.57581
-2.56624
-2.55861
-2.5529
-2.5491
-2.5472
-20.4072
-20.311
-20.1197
-19.8352
-19.4609
-19.0018
-18.4647
-17.8579
-17.1918
-16.4777
-15.7282
-14.9556
-14.1723
-13.3897
-12.6179
-11.8657
-11.1403
-10.4472
-9.79039
-9.17255
-8.59497
-8.05789
-7.56071
-7.10218
-6.68055
-6.29377
-5.93958
-5.61567
-5.31971
-5.04943
-4.80272
-4.57758
-4.37221
-4.18499
-4.01444
-3.85926
-3.71825
-3.59031
-3.47444
-3.3697
-3.27522
-3.19014
-3.11367
-3.04504
-2.98353
-2.92845
-2.87916
-2.83505
-2.79558
-2.76027
-2.72866
-2.70038
-2.67509
-2.65253
-2.63245
-2.6147
-2.59912
-2.58561
-2.57411
-2.56457
-2.55696
-2.55126
-2.54746
-2.54557
-20.5537
-20.456
-20.2613
-19.9715
-19.5896
-19.1202
-18.5701
-17.948
-17.2645
-16.5319
-15.7635
-14.9725
-14.172
-13.3739
-12.5888
-11.8256
-11.0917
-10.3923
-9.73149
-9.1115
-8.5334
-7.99711
-7.50175
-7.04577
-6.6272
-6.24378
-5.8931
-5.5727
-5.28015
-5.01312
-4.76941
-4.54703
-4.34416
-4.15918
-3.99067
-3.83732
-3.69799
-3.5716
-3.45717
-3.35379
-3.26059
-3.17674
-3.10144
-3.03393
-2.97347
-2.91937
-2.87099
-2.82771
-2.789
-2.75436
-2.72334
-2.69556
-2.6707
-2.64848
-2.62869
-2.61115
-2.59572
-2.58233
-2.57091
-2.56142
-2.55383
-2.54815
-2.54436
-2.54247
-20.7614
-20.6616
-20.4626
-20.1656
-19.7731
-19.2893
-18.7207
-18.0765
-17.368
-16.6086
-15.8128
-14.9952
-14.1699
-13.3498
-12.5458
-11.7671
-11.0212
-10.3132
-9.64687
-9.02411
-8.44553
-7.91063
-7.41805
-6.96588
-6.55179
-6.17325
-5.82762
-5.51226
-5.22459
-4.96216
-4.72272
-4.50422
-4.30485
-4.12303
-3.95734
-3.80656
-3.66956
-3.54533
-3.43292
-3.33145
-3.24005
-3.15792
-3.08427
-3.01832
-2.95935
-2.90664
-2.85955
-2.81745
-2.7798
-2.7461
-2.71591
-2.68885
-2.66458
-2.64285
-2.62344
-2.60619
-2.59099
-2.57775
-2.56642
-2.55699
-2.54944
-2.54378
-2.54
-2.53811
-21.0231
-20.9211
-20.7171
-20.4116
-20.0063
-19.5045
-18.9126
-18.24
-17.4991
-16.7049
-15.8737
-15.0218
-14.1648
-13.3165
-12.4886
-11.6905
-10.9297
-10.2112
-9.53836
-8.91255
-8.33383
-7.80109
-7.3124
-6.86532
-6.45711
-6.0849
-5.74577
-5.43686
-5.1554
-4.89881
-4.66474
-4.4511
-4.25609
-4.07815
-3.91596
-3.76833
-3.63422
-3.51265
-3.40273
-3.30361
-3.21445
-3.13447
-3.06288
-2.9989
-2.94179
-2.89083
-2.84535
-2.80474
-2.76842
-2.7359
-2.70675
-2.68057
-2.65704
-2.63591
-2.61697
-2.60008
-2.58513
-2.57206
-2.56085
-2.55149
-2.54398
-2.53833
-2.53455
-2.53267
-21.3323
-21.2281
-21.0191
-20.7046
-20.285
-19.7625
-19.1428
-18.4358
-17.6553
-16.8184
-15.9438
-15.0502
-14.1549
-13.2729
-12.4166
-11.5958
-10.8177
-10.0873
-9.40735
-8.7786
-8.20039
-7.67082
-7.18725
-6.74662
-6.34569
-5.98121
-5.64995
-5.34879
-5.07476
-4.82512
-4.59738
-4.38944
-4.19949
-4.02605
-3.86788
-3.72388
-3.59308
-3.47458
-3.36754
-3.27114
-3.18459
-3.10712
-3.03794
-2.97628
-2.92137
-2.87247
-2.82889
-2.79001
-2.75526
-2.72413
-2.69618
-2.67103
-2.64837
-2.62793
-2.60953
-2.59303
-2.57836
-2.56548
-2.55438
-2.54508
-2.53759
-2.53195
-2.52818
-2.52629
-21.6832
-21.5772
-21.3637
-21.0405
-20.6058
-20.0604
-19.409
-18.6618
-17.8344
-16.9469
-16.021
-15.0783
-14.1384
-13.2176
-12.329
-11.4826
-10.6855
-9.94221
-9.25494
-8.62376
-8.04701
-7.52187
-7.0448
-6.61204
-6.2198
-5.86441
-5.54233
-5.25015
-4.98468
-4.74298
-4.52243
-4.32087
-4.13655
-3.96808
-3.81432
-3.67431
-3.54716
-3.43204
-3.32817
-3.2348
-3.15116
-3.0765
-3.01005
-2.951
-2.89858
-2.85201
-2.81059
-2.77367
-2.74068
-2.71111
-2.68452
-2.66053
-2.63882
-2.61914
-2.60132
-2.58525
-2.57087
-2.55817
-2.54717
-2.53792
-2.53044
-2.5248
-2.52101
-2.51913
-22.07
-21.963
-21.7462
-21.4154
-20.9662
-20.3966
-19.7099
-18.9166
-18.0348
-17.0882
-16.1029
-15.1039
-14.1134
-13.1491
-12.2248
-11.3505
-10.533
-9.77634
-9.08206
-8.44933
-7.87536
-7.35613
-6.8871
-6.46369
-6.08154
-5.73655
-5.42487
-5.14284
-4.88698
-4.65412
-4.4415
-4.2469
-4.06863
-3.90545
-3.75639
-3.62061
-3.49735
-3.38585
-3.28539
-3.19526
-3.11477
-3.04318
-2.97971
-2.92356
-2.87388
-2.82988
-2.79083
-2.75607
-2.72501
-2.69715
-2.67205
-2.64931
-2.62864
-2.60978
-2.59256
-2.57692
-2.56282
-2.55029
-2.53937
-2.53014
-2.52266
-2.517
-2.51319
-2.51129
-22.4873
-22.3804
-22.1625
-21.8263
-21.3639
-20.7697
-20.0446
-19.1994
-18.2551
-17.2406
-16.1872
-15.1247
-14.0779
-13.066
-12.1032
-11.1992
-10.3603
-9.59013
-8.88952
-8.25653
-7.68698
-7.1754
-6.71607
-6.30352
-5.93282
-5.59949
-5.29939
-5.02857
-4.7833
-4.56013
-4.35607
-4.16885
-3.99693
-3.83925
-3.69505
-3.56366
-3.44444
-3.33672
-3.23983
-3.15313
-3.07596
-3.00765
-2.9474
-2.89438
-2.84768
-2.80647
-2.76998
-2.73753
-2.70854
-2.68252
-2.659
-2.63761
-2.61803
-2.60002
-2.58343
-2.56821
-2.55437
-2.54197
-2.5311
-2.52186
-2.51435
-2.50865
-2.50481
-2.5029
-22.9296
-22.8245
-22.6084
-22.2703
-21.7975
-21.1793
-20.4132
-19.5098
-18.4941
-17.4019
-16.2717
-15.1383
-14.0298
-12.9668
-11.9631
-11.0281
-10.1674
-9.38396
-8.67804
-8.04648
-7.48335
-6.98141
-6.53354
-6.13338
-5.77543
-5.45492
-5.16748
-4.90891
-4.67516
-4.46244
-4.26749
-4.08797
-3.92254
-3.77042
-3.63113
-3.50422
-3.38914
-3.2853
-3.19209
-3.10892
-3.03522
-2.97034
-2.91353
-2.86385
-2.82034
-2.78211
-2.74833
-2.71834
-2.69154
-2.66744
-2.6456
-2.62563
-2.6072
-2.59006
-2.57408
-2.55926
-2.54564
-2.53333
-2.52248
-2.5132
-2.50562
-2.49986
-2.49597
-2.49404
-23.3915
-23.2904
-23.0799
-22.7447
-22.2657
-21.6256
-20.8164
-19.848
-18.7509
-17.5703
-16.3536
-15.1421
-13.9671
-12.85
-11.8038
-10.837
-9.95428
-9.15815
-8.4483
-7.8203
-7.26597
-6.77586
-6.34131
-5.95502
-5.61103
-5.30439
-5.0306
-4.78523
-4.56391
-4.36239
-4.177
-4.00536
-3.84641
-3.6998
-3.56538
-3.44293
-3.33203
-3.23213
-3.14265
-3.06308
-2.99293
-2.93163
-2.87843
-2.83231
-2.7922
-2.7571
-2.72618
-2.69874
-2.67422
-2.65213
-2.63204
-2.61354
-2.59629
-2.58004
-2.56466
-2.55019
-2.53675
-2.52449
-2.51359
-2.50422
-2.49654
-2.4907
-2.48675
-2.4848
-23.8674
-23.7728
-23.5729
-23.2469
-22.768
-22.1094
-21.2556
-20.2148
-19.0246
-17.7435
-16.4303
-15.1334
-13.8877
-12.7143
-11.6247
-10.6258
-9.72127
-8.91306
-8.20094
-7.57908
-7.03635
-6.56047
-6.14111
-5.77011
-5.44113
-5.14929
-4.89005
-4.65877
-4.45078
-4.26119
-4.08575
-3.922
-3.76937
-3.62808
-3.49839
-3.38037
-3.27366
-3.1777
-3.09197
-3.01601
-2.94943
-2.89182
-2.84242
-2.80007
-2.76352
-2.73171
-2.70375
-2.67896
-2.65678
-2.63677
-2.61847
-2.6015
-2.58548
-2.57011
-2.55529
-2.54112
-2.52779
-2.51551
-2.50452
-2.49502
-2.48719
-2.48124
-2.47721
-2.47524
-24.3518
-24.2669
-24.0833
-23.7745
-23.3037
-22.6322
-21.7333
-20.6116
-19.3145
-17.919
-16.4987
-15.1093
-13.7894
-12.5587
-11.4255
-10.3947
-9.46867
-8.64899
-7.93649
-7.32391
-6.79606
-6.33696
-5.93467
-5.58024
-5.26712
-4.99084
-4.74694
-4.53059
-4.33683
-4.15998
-3.99482
-3.83879
-3.69214
-3.55586
-3.43068
-3.31698
-3.21445
-3.12243
-3.04043
-2.96804
-2.90501
-2.85116
-2.80575
-2.76738
-2.73459
-2.70619
-2.68128
-2.65918
-2.63939
-2.62148
-2.60504
-2.58965
-2.57488
-2.56039
-2.54608
-2.53214
-2.51885
-2.50649
-2.49534
-2.48564
-2.47763
-2.47154
-2.46743
-2.46545
-24.8392
-24.7673
-24.6069
-24.3247
-23.8727
-23.1963
-22.2529
-21.0406
-19.6195
-18.094
-16.5554
-15.0668
-13.6703
-12.3823
-11.2059
-10.1442
-9.19705
-8.36617
-7.65535
-7.05593
-6.5468
-6.10713
-5.72367
-5.38693
-5.09026
-4.83011
-4.60224
-4.40159
-4.22304
-4.05982
-3.90523
-3.75652
-3.6153
-3.4836
-3.36262
-3.25316
-3.15481
-3.06669
-2.98838
-2.91947
-2.85988
-2.80985
-2.76864
-2.7345
-2.70562
-2.68074
-2.65894
-2.63955
-2.62217
-2.6064
-2.59184
-2.57808
-2.56462
-2.55099
-2.53711
-2.52332
-2.50999
-2.49746
-2.48609
-2.47616
-2.4679
-2.46165
-2.45746
-2.45546
-25.3239
-25.2688
-25.1392
-24.8948
-24.4747
-23.8046
-22.8191
-21.5046
-19.9382
-18.2647
-16.5968
-15.0025
-13.5284
-12.1849
-10.9664
-9.87493
-8.90724
-8.06469
-7.35772
-6.7763
-6.29043
-5.87275
-5.50977
-5.19166
-4.91165
-4.66802
-4.4568
-4.27246
-4.11021
-3.96175
-3.81797
-3.67584
-3.53931
-3.41169
-3.29452
-3.18921
-3.09508
-3.01081
-2.93612
-2.87056
-2.81421
-2.76801
-2.73128
-2.70164
-2.67683
-2.65557
-2.63691
-2.62022
-2.60524
-2.59163
-2.57896
-2.5669
-2.55481
-2.54203
-2.52847
-2.51471
-2.50126
-2.48849
-2.47684
-2.46661
-2.45805
-2.45161
-2.44733
-2.44535
-25.8005
-25.766
-25.6754
-25.4814
-25.1095
-24.4606
-23.4381
-22.0076
-20.2683
-18.4268
-16.619
-14.9126
-13.3619
-11.9665
-10.7073
-9.5882
-8.60051
-7.74438
-7.04345
-6.48629
-6.0291
-5.63563
-5.29456
-4.99587
-4.7322
-4.50533
-4.31131
-4.14372
-3.999
-3.86679
-3.73408
-3.59732
-3.46449
-3.3404
-3.22656
-3.12536
-3.03558
-2.95506
-2.88394
-2.82157
-2.76809
-2.72572
-2.69382
-2.66904
-2.64841
-2.63083
-2.61534
-2.60128
-2.58869
-2.57723
-2.56647
-2.55617
-2.54554
-2.53359
-2.52021
-2.50638
-2.49271
-2.47961
-2.46762
-2.45703
-2.44809
-2.44144
-2.43709
-2.43516
-26.2638
-26.2539
-26.2106
-26.081
-25.7762
-25.1685
-24.1178
-22.5552
-20.606
-18.5747
-16.6185
-14.7931
-13.1693
-11.7282
-10.4292
-9.28559
-8.27871
-7.40457
-6.71188
-6.18731
-5.76536
-5.3975
-5.07956
-4.80101
-4.55262
-4.34261
-4.16643
-4.01563
-3.88992
-3.77604
-3.65466
-3.52134
-3.39102
-3.26997
-3.1588
-3.0618
-2.97664
-2.89967
-2.83212
-2.77275
-2.72156
-2.68298
-2.65643
-2.63692
-2.62054
-2.60668
-2.59436
-2.58281
-2.57257
-2.56328
-2.55438
-2.54595
-2.53693
-2.52579
-2.51238
-2.49833
-2.48438
-2.47083
-2.45846
-2.44748
-2.43806
-2.43116
-2.42679
-2.42494
-26.7089
-26.7271
-26.7394
-26.6891
-26.4737
-25.9327
-24.8686
-23.1549
-20.9454
-18.7014
-16.5923
-14.6391
-12.949
-11.4722
-10.1327
-8.96914
-7.94469
-7.04382
-6.36165
-5.88109
-5.50237
-5.15988
-4.86613
-4.60865
-4.37328
-4.18029
-4.02284
-3.88817
-3.78324
-3.69068
-3.58102
-3.44807
-3.3189
-3.20064
-3.09119
-2.99864
-2.91863
-2.8448
-2.7809
-2.72441
-2.67454
-2.63971
-2.61924
-2.60555
-2.59336
-2.58324
-2.57411
-2.56486
-2.55694
-2.54982
-2.54269
-2.53625
-2.52908
-2.51875
-2.50499
-2.49058
-2.4763
-2.46218
-2.4494
-2.438
-2.42795
-2.42077
-2.41645
-2.41476
-27.1314
-27.1809
-27.2566
-27.3005
-27.1995
-26.7579
-25.7036
-23.8177
-21.2765
-18.7984
-16.539
-14.4446
-12.6998
-11.2026
-9.81727
-8.64136
-7.60283
-6.65943
-5.99038
-5.56979
-5.24422
-4.9238
-4.65544
-4.42066
-4.19411
-4.01864
-3.88136
-3.76091
-3.67898
-3.61208
-3.51475
-3.37729
-3.24795
-3.13271
-3.02346
-2.93596
-2.862
-2.79053
-2.73056
-2.67695
-2.62684
-2.59573
-2.58243
-2.57525
-2.56697
-2.56063
-2.55474
-2.54744
-2.54183
-2.53694
-2.53137
-2.52709
-2.52212
-2.51261
-2.49801
-2.48313
-2.46853
-2.45364
-2.44047
-2.42866
-2.41776
-2.41027
-2.40612
-2.40468
-27.5273
-27.6106
-27.7565
-27.9094
-27.9498
-27.6481
-26.6389
-24.5592
-21.5832
-18.8553
-16.4608
-14.2011
-12.4206
-10.926
-9.48118
-8.30514
-7.26003
-6.24668
-5.59443
-5.25633
-4.99636
-4.68945
-4.4484
-4.23944
-4.01437
-3.85774
-3.74325
-3.63287
-3.5768
-3.54187
-3.45793
-3.30828
-3.17779
-3.06673
-2.95512
-2.87377
-2.8074
-2.73671
-2.68135
-2.63097
-2.5781
-2.55072
-2.5462
-2.54643
-2.5414
-2.53891
-2.53643
-2.53049
-2.52724
-2.52471
-2.52033
-2.51844
-2.51619
-2.50756
-2.49138
-2.47594
-2.46113
-2.44517
-2.4317
-2.41956
-2.40747
-2.39964
-2.39583
-2.39476
-27.8933
-28.0122
-28.2337
-28.5087
-28.7192
-28.6062
-27.6944
-25.4029
-21.8397
-18.8597
-16.3654
-13.8963
-12.1106
-10.6537
-9.11936
-7.96379
-6.92711
-5.79768
-5.16851
-4.94467
-4.76623
-4.45545
-4.24555
-4.06848
-3.8322
-3.69751
-3.6105
-3.50227
-3.47592
-3.48209
-3.41344
-3.23943
-3.10777
-3.00369
-2.88521
-2.81205
-2.75582
-2.68296
-2.63354
-2.58735
-2.52765
-2.50423
-2.51084
-2.51965
-2.51657
-2.51815
-2.51944
-2.51388
-2.51319
-2.51329
-2.50939
-2.51022
-2.51149
-2.50387
-2.48494
-2.46898
-2.45424
-2.4367
-2.42311
-2.41082
-2.39702
-2.38884
-2.38562
-2.3851
-28.227
-28.3822
-28.6826
-29.091
-29.4997
-29.6326
-28.8936
-26.3844
-22.0056
-18.7972
-16.2702
-13.5109
-11.7687
-10.4035
-8.72139
-7.62088
-6.6211
-5.29961
-4.70546
-4.64023
-4.56417
-4.21787
-4.04705
-3.91304
-3.64408
-3.53772
-3.4864
-3.36618
-3.37501
-3.43518
-3.38535
-3.16783
-3.03705
-2.94535
-2.81217
-2.75069
-2.70875
-2.62835
-2.58738
-2.54747
-2.47445
-2.45567
-2.47671
-2.49567
-2.4922
-2.49834
-2.50414
-2.49735
-2.49966
-2.50294
-2.49831
-2.50231
-2.50824
-2.5019
-2.47839
-2.46217
-2.44804
-2.42807
-2.41475
-2.40267
-2.3863
-2.37781
-2.37555
-2.37576
-28.5266
-28.7179
-29.0984
-29.648
-30.2813
-30.7244
-30.2632
-27.5575
-22.0182
-18.6518
-16.2076
-13.0149
-11.3942
-10.2036
-8.26795
-7.28016
-6.36837
-4.73208
-4.19614
-4.35028
-4.40469
-3.96876
-3.85261
-3.78121
-3.44385
-3.378
-3.37628
-3.21988
-3.27211
-3.40415
-3.37952
-3.08857
-2.96453
-2.89473
-2.73336
-2.68958
-2.66856
-2.57122
-2.54312
-2.51347
-2.41679
-2.40424
-2.44436
-2.47557
-2.46773
-2.47947
-2.49111
-2.48042
-2.48662
-2.49405
-2.48665
-2.49454
-2.50668
-2.5022
-2.47124
-2.45541
-2.44287
-2.419
-2.40663
-2.39542
-2.37511
-2.36646
-2.36566
-2.36685
-28.7909
-29.0171
-29.4767
-30.1712
-31.0509
-31.873
-31.8313
-29.0041
-21.782
-18.4068
-16.2325
-12.3604
-10.9864
-10.0972
-7.72587
-6.94549
-6.20924
-4.06321
-3.6297
-4.08428
-4.30826
-3.69404
-3.66154
-3.68551
-3.22133
-3.21789
-3.28862
-3.05611
-3.16458
-3.39249
-3.40448
-2.99374
-2.88898
-2.85678
-2.64455
-2.62855
-2.63885
-2.50871
-2.50099
-2.48865
-2.35204
-2.34904
-2.41445
-2.46085
-2.44212
-2.46146
-2.48123
-2.46234
-2.47403
-2.48727
-2.47379
-2.48665
-2.50714
-2.50554
-2.46272
-2.44859
-2.43926
-2.40903
-2.39877
-2.38954
-2.36312
-2.35471
-2.35602
-2.35845
-29.0199
-29.2786
-29.8136
-30.6522
-31.7933
-33.0631
-33.6243
-30.8481
-21.154
-18.046
-16.4333
-11.4729
-10.5454
-10.1501
-7.04105
-6.62071
-6.20426
-3.24416
-2.99458
-3.85397
-4.30377
-3.37058
-3.4729
-3.64503
-2.96035
-3.05698
-3.23647
-2.86381
-3.04925
-3.40406
-3.47266
-2.87111
-2.80912
-2.8393
-2.53912
-2.56744
-2.62514
-2.43615
-2.46121
-2.47791
-2.27615
-2.28907
-2.38786
-2.45361
-2.41369
-2.44422
-2.47585
-2.44188
-2.46186
-2.4836
-2.45876
-2.47833
-2.50993
-2.51308
-2.45159
-2.44159
-2.43801
-2.39742
-2.39118
-2.38571
-2.34982
-2.34245
-2.34671
-2.35067
-29.2138
-29.502
-30.1067
-31.0831
-32.4913
-34.2701
-35.6608
-33.2743
-19.9234
-17.557
-16.9447
-10.2381
-10.0721
-10.4601
-6.12895
-6.30966
-6.44263
-2.20126
-2.2804
-3.67292
-4.4319
-2.96228
-3.28578
-3.68826
-2.63605
-2.8951
-3.23937
-2.6265
-2.92269
-3.44266
-3.60208
-2.70225
-2.72389
-2.85415
-2.40687
-2.50617
-2.63563
-2.34631
-2.42398
-2.48853
-2.18303
-2.22346
-2.3656
-2.45682
-2.37978
-2.42763
-2.47699
-2.41717
-2.45005
-2.48455
-2.44015
-2.46922
-2.51534
-2.5265
-2.43604
-2.43429
-2.44036
-2.38304
-2.38385
-2.38496
-2.33439
-2.32959
-2.33784
-2.34359
-29.3738
-29.6878
-30.3541
-31.4573
-33.1266
-35.4596
-37.9418
-36.5548
-17.7851
-16.9346
-17.9663
-8.48452
-9.57059
-11.1692
-4.8619
-6.01632
-7.05326
-0.825513
-1.48157
-3.55538
-4.74962
-2.415
-3.09985
-3.85687
-2.21116
-2.73274
-3.32586
-2.31994
-2.78196
-3.51132
-3.81863
-2.46013
-2.63278
-2.91885
-2.23254
-2.44489
-2.68228
-2.22827
-2.38951
-2.53106
-2.06367
-2.15172
-2.34877
-2.4746
-2.33641
-2.41162
-2.48761
-2.38541
-2.4386
-2.49235
-2.4159
-2.459
-2.52358
-2.54821
-2.41339
-2.4266
-2.44814
-2.36419
-2.37681
-2.38875
-2.31562
-2.31611
-2.32954
-2.33729
-29.5014
-29.8369
-30.5555
-31.7694
-33.6809
-36.5861
-40.4365
-41.0845
-14.3054
-16.1871
-19.7844
-5.96131
-9.04932
-12.4801
-3.05293
-5.74515
-8.21872
1.04153
-0.602965
-3.51367
-5.33616
-1.64998
-2.91615
-4.21044
-1.63131
-2.57161
-3.53651
-1.90919
-2.62576
-3.61099
-4.15914
-2.106
-2.53642
-3.05849
-1.99383
-2.38419
-2.78218
-2.0661
-2.35807
-2.62042
-1.90499
-2.07425
-2.33834
-2.51271
-2.27781
-2.39619
-2.51198
-2.34255
-2.42754
-2.51017
-2.38309
-2.44743
-2.53463
-2.58169
-2.37983
-2.41852
-2.46397
-2.33837
-2.37008
-2.39912
-2.29173
-2.30212
-2.32196
-2.33186
-29.5987
-29.9511
-30.7116
-32.0165
-34.1379
-37.595
-43.0611
-47.4256
-8.8783
-15.3447
-22.7982
-2.3097
-8.52503
-14.6753
-0.435523
-5.50178
-10.1926
3.62588
0.331522
-3.554
-6.30072
-0.555762
-2.73822
-4.8322
-0.819034
-2.41553
-3.92774
-1.34462
-2.45639
-3.73862
-4.67532
-1.58538
-2.43734
-3.30814
-1.65892
-2.32545
-2.95924
-1.83713
-2.33008
-2.77741
-1.68834
-1.993
-2.33489
-2.57907
-2.19581
-2.38153
-2.55609
-2.28284
-2.41706
-2.54249
-2.33761
-2.4346
-2.54809
-2.63187
-2.33004
-2.4102
-2.49156
-2.30208
-2.36375
-2.41896
-2.26015
-2.28797
-2.31532
-2.32734
-29.6679
-30.0327
-30.824
-32.1976
-34.4851
-38.4255
-45.6499
-56.365
-0.672051
-14.4706
-27.552
2.97151
-8.02719
-18.1406
3.36084
-5.29412
-13.3204
7.24399
1.26675
-3.66969
-7.79229
1.02171
-2.57375
-5.83594
0.333597
-2.27167
-4.57622
-0.557093
-2.28256
-3.88421
-5.43875
-0.823349
-2.34106
-3.71562
-1.18342
-2.27131
-3.24612
-1.50987
-2.30628
-3.03039
-1.38768
-1.91256
-2.33811
-2.68449
-2.07919
-2.36815
-2.62818
-2.19835
-2.40751
-2.59542
-2.2738
-2.42109
-2.5629
-2.70561
-2.25674
-2.40206
-2.53598
-2.25047
-2.35803
-2.45218
-2.21734
-2.27437
-2.30984
-2.32381
-29.7115
-30.0843
-30.8956
-32.3144
-34.7153
-39.0183
-47.918
-68.984
11.4353
-13.676
-34.7706
10.5667
-7.60438
-23.3924
8.83943
-5.13398
-18.0641
12.3307
2.09982
-3.83145
-10.0118
3.29076
-2.43659
-7.37394
1.97363
-2.15227
-5.58395
0.548138
-2.12335
-4.02691
-6.54701
0.281332
-2.25748
-4.34472
-0.50679
-2.22633
-3.68658
-1.04166
-2.28788
-3.41735
-0.967258
-1.84146
-2.34607
-2.84359
-1.91281
-2.35705
-2.73934
-2.07834
-2.39962
-2.67722
-2.18398
-2.40841
-2.57701
-2.81232
-2.15016
-2.39491
-2.60412
-2.17697
-2.35331
-2.50409
-2.15843
-2.26264
-2.30582
-2.32133
-29.7322
-30.1088
-30.9298
-32.3705
-34.828
-39.3268
-49.4126
-86.7413
28.931
-13.138
-45.3988
21.3906
-7.33256
-31.1073
16.669
-5.0393
-25.0301
19.4727
2.65846
-3.9741
-13.2271
6.52742
-2.34949
-9.64591
4.29722
-2.07685
-7.0841
2.09848
-2.01359
-4.12974
-8.13116
1.86278
-2.20275
-5.27873
0.451673
-2.1979
-4.33817
-0.375931
-2.27697
-3.9883
-0.379004
-1.7941
-2.35438
-3.07601
-1.67677
-2.35005
-2.90432
-1.90866
-2.39467
-2.79883
-2.058
-2.39952
-2.58699
-2.96486
-1.99755
-2.39019
-2.7051
-2.073
-2.35036
-2.58173
-2.07699
-2.255
-2.30364
-2.32006
)
;

boundaryField
{
    left
    {
        type            calculated;
        value           nonuniform List<scalar> 
32
(
-20.3301
-20.4072
-20.5537
-20.7614
-21.0231
-21.3323
-21.6832
-22.07
-22.4873
-22.9296
-23.3915
-23.8674
-24.3518
-24.8392
-25.3239
-25.8005
-26.2638
-26.7089
-27.1314
-27.5273
-27.8933
-28.227
-28.5266
-28.7909
-29.0199
-29.2138
-29.3738
-29.5014
-29.5987
-29.6679
-29.7115
-29.7322
)
;
    }
    right
    {
        type            calculated;
        value           nonuniform List<scalar> 
32
(
-2.5472
-2.54557
-2.54247
-2.53811
-2.53267
-2.52629
-2.51913
-2.51129
-2.5029
-2.49404
-2.4848
-2.47524
-2.46545
-2.45546
-2.44535
-2.43516
-2.42494
-2.41476
-2.40468
-2.39476
-2.3851
-2.37576
-2.36685
-2.35845
-2.35067
-2.34359
-2.33729
-2.33186
-2.32734
-2.32381
-2.32133
-2.32006
)
;
    }
    interface
    {
        type            calculated;
        value           nonuniform List<scalar> 
64
(
-29.7371
-30.1147
-30.938
-32.384
-34.8554
-39.4053
-49.8978
-97.1132
39.2371
-12.9601
-51.6984
27.7399
-7.24589
-35.6763
21.2665
-5.01103
-29.1544
23.6413
2.84255
-4.02977
-15.1218
8.42684
-2.32195
-10.9936
5.65781
-2.05312
-7.97607
3.00313
-1.9766
-4.16538
-9.06094
2.79174
-2.18507
-5.83373
1.01284
-2.18896
-4.72488
0.014338
-2.27373
-4.32686
-0.036058
-1.77859
-2.35788
-3.21335
-1.53853
-2.34786
-3.00236
-1.80941
-2.39313
-2.87115
-1.98453
-2.3965
-2.59043
-3.05443
-1.90793
-2.38868
-2.76512
-2.0122
-2.34946
-2.628
-2.02973
-2.25255
-2.30308
-2.31976
)
;
    }
    bottom
    {
        type            calculated;
        value           nonuniform List<scalar> 
64
(
-20.31
-20.2149
-20.0258
-19.7449
-19.3758
-18.9236
-18.395
-17.7984
-17.1436
-16.4417
-15.7045
-14.9441
-14.1721
-13.3996
-12.6366
-11.8917
-11.172
-10.4831
-9.82911
-9.21278
-8.63563
-8.09811
-7.5998
-7.13963
-6.71602
-6.32704
-5.97056
-5.64434
-5.34612
-5.07371
-4.82499
-4.59801
-4.39098
-4.20225
-4.03035
-3.87393
-3.73179
-3.60281
-3.48598
-3.38033
-3.28498
-3.19908
-3.12184
-3.05247
-2.99026
-2.93453
-2.88463
-2.83996
-2.79999
-2.76423
-2.73223
-2.70361
-2.67804
-2.65524
-2.63498
-2.61708
-2.60139
-2.58781
-2.57625
-2.56668
-2.55905
-2.55333
-2.54953
-2.54763
)
;
    }
    defaultFaces
    {
        type            empty;
    }
}


// ************************************************************************* //
