/*--------------------------------*- C++ -*----------------------------------*\
| =========                 |                                                 |
| \\      /  F ield         | OpenFOAM: The Open Source CFD Toolbox           |
|  \\    /   O peration     | Version:  5.x                                   |
|   \\  /    A nd           | Web:      www.OpenFOAM.org                      |
|    \\/     M anipulation  |                                                 |
\*---------------------------------------------------------------------------*/
FoamFile
{
    version     2.0;
    format      ascii;
    class       volScalarField;
    location    "6.8";
    object      gradTx;
}
// * * * * * * * * * * * * * * * * * * * * * * * * * * * * * * * * * * * * * //

dimensions      [0 -1 0 1 0 0 0];

internalField   nonuniform List<scalar> 
2048
(
0.0220999
0.0660533
0.109243
0.151093
0.190945
0.228073
0.261718
0.291151
0.315753
0.335072
0.348882
0.357187
0.360218
0.358394
0.352274
0.342507
0.329784
0.3148
0.298216
0.280634
0.262583
0.244505
0.226753
0.209595
0.193223
0.177764
0.163286
0.149815
0.13734
0.12582
0.115196
0.105399
0.0963512
0.0879812
0.0802216
0.0730149
0.0663132
0.0600788
0.0542824
0.0489016
0.0439194
0.0393221
0.0350978
0.0312344
0.0277189
0.0245361
0.0216688
0.0190974
0.0168006
0.0147558
0.0129392
0.011327
0.00989492
0.00861946
0.00747792
0.00644895
0.00551293
0.00465219
0.00385114
0.0030963
0.00237616
0.00168092
0.00100227
0.000333071
0.0655374
0.195902
0.324061
0.448323
0.566739
0.677128
0.777191
0.864719
0.937817
0.995122
1.03594
1.0603
1.06892
1.06306
1.04443
1.01499
0.976802
0.931958
0.882429
0.830017
0.776288
0.722552
0.66985
0.618968
0.570465
0.524705
0.481885
0.442072
0.405223
0.371216
0.339869
0.310966
0.28428
0.259591
0.2367
0.215434
0.195654
0.177247
0.16013
0.144237
0.129519
0.115938
0.10346
0.0920498
0.0816694
0.0722746
0.063814
0.0562298
0.0494586
0.043433
0.0380828
0.0333364
0.0291223
0.0253705
0.0220134
0.0189878
0.0162353
0.0137036
0.0113466
0.00912463
0.00700373
0.00495525
0.00295498
0.000982058
0.107613
0.32174
0.532431
0.736976
0.932172
1.11435
1.2796
1.42412
1.54462
1.63877
1.7054
1.74458
1.75757
1.74658
1.7145
1.66466
1.60056
1.52567
1.44328
1.35637
1.26753
1.17891
1.09219
1.00864
0.929136
0.854249
0.784278
0.719305
0.659243
0.60387
0.552868
0.505867
0.462481
0.422338
0.385106
0.350503
0.318299
0.288318
0.260423
0.234514
0.210517
0.188371
0.168025
0.149427
0.132515
0.117219
0.103453
0.0911232
0.0801243
0.0703451
0.0616697
0.0539802
0.0471589
0.0410899
0.0356621
0.0307711
0.0263212
0.0222264
0.0184117
0.0148124
0.0113735
0.0080491
0.00480108
0.00159594
0.148609
0.444452
0.735938
1.01947
1.29063
1.54417
1.77438
1.97565
2.14312
2.27332
2.36456
2.41705
2.43269
2.41478
2.36756
2.2958
2.20451
2.0986
1.98272
1.86104
1.73715
1.614
1.49388
1.37847
1.26893
1.16598
1.06999
0.981021
0.898914
0.823327
0.753786
0.689748
0.630648
0.575957
0.525206
0.478006
0.434046
0.393089
0.354958
0.319524
0.286692
0.256392
0.228559
0.203129
0.180021
0.159139
0.140366
0.12357
0.108605
0.0953164
0.0835427
0.0731203
0.0638855
0.0556776
0.0483418
0.0417334
0.0357196
0.0301822
0.0250182
0.0201395
0.015472
0.0109538
0.00653582
0.00217328
0.188683
0.564553
0.935575
1.29745
1.64454
1.96994
2.26584
2.52445
2.73902
2.90476
3.01941
3.08341
3.09951
3.07231
3.00757
2.91169
2.79128
2.65279
2.50224
2.34503
2.18576
2.02815
1.87502
1.72841
1.5897
1.45969
1.33877
1.22695
1.12398
1.02936
0.942442
0.862465
0.788675
0.720368
0.656936
0.597886
0.542835
0.491494
0.443655
0.399171
0.357937
0.319878
0.284928
0.253014
0.224042
0.197892
0.174414
0.15344
0.13478
0.118237
0.103604
0.0906715
0.0792305
0.0690747
0.0600061
0.0518392
0.0444047
0.0375529
0.0311542
0.0250989
0.0192951
0.0136674
0.00815835
0.00271378
0.227873
0.682205
1.13177
1.57181
1.99554
2.39414
2.75736
3.07473
3.33711
3.53812
3.67492
3.74832
3.76222
3.72279
3.63759
3.51484
3.36286
3.18972
3.0029
2.80906
2.61381
2.42159
2.23571
2.05849
1.89141
1.7353
1.59052
1.45702
1.33438
1.22195
1.11883
1.02405
0.936623
0.855647
0.780374
0.710214
0.644722
0.583572
0.526536
0.473457
0.424231
0.378791
0.337077
0.299017
0.264507
0.233404
0.205526
0.180664
0.158586
0.13905
0.121803
0.106592
0.0931599
0.0812561
0.0706377
0.0610782
0.0523719
0.0443381
0.036822
0.029694
0.0228469
0.0161934
0.00967096
0.00321821
0.266098
0.797232
1.32443
1.8428
2.34448
2.81852
3.25164
3.63002
3.9415
4.17774
4.33531
4.41563
4.42416
4.36904
4.25993
4.10707
3.92064
3.7104
3.48538
3.25354
3.02153
2.79447
2.57607
2.36878
2.17411
1.99287
1.82532
1.67127
1.53019
1.40118
1.2831
1.17469
1.07469
0.981997
0.895713
0.815164
0.739859
0.669451
0.603702
0.542458
0.485627
0.433159
0.385014
0.341132
0.301402
0.265658
0.233683
0.205225
0.180007
0.157741
0.138129
0.120873
0.105671
0.0922235
0.080243
0.0694605
0.0596337
0.0505515
0.0420353
0.0339375
0.0261376
0.0185397
0.0110785
0.00368815
0.303169
0.90913
1.51294
2.11
2.69152
3.24412
3.75079
4.19337
4.55585
4.82745
5.00417
5.08849
5.08793
5.01313
4.87622
4.68963
4.46554
4.21546
3.95005
3.67867
3.40902
3.14686
2.89616
2.65939
2.43797
2.23257
2.04331
1.86989
1.71159
1.56729
1.43552
1.31468
1.20319
1.09972
1.00324
0.912993
0.828471
0.749324
0.675318
0.60631
0.542229
0.483059
0.428796
0.379398
0.334756
0.294678
0.258908
0.227144
0.199063
0.174329
0.152602
0.133536
0.116785
0.102
0.0888474
0.0770126
0.0662165
0.0562181
0.0468166
0.0378486
0.029183
0.0207173
0.0123875
0.00412581
0.338787
1.01709
1.6962
2.3724
3.03618
3.67141
4.25647
4.76752
5.18352
5.4907
5.68464
5.76947
5.75551
5.65653
5.48752
5.26332
4.99811
4.70523
4.39704
4.08445
3.77626
3.47878
3.19609
2.93051
2.68321
2.45464
2.24476
2.05314
1.87888
1.72059
1.57645
1.44441
1.32253
1.20922
1.10331
1.00401
0.910835
0.823434
0.741595
0.665192
0.594187
0.52861
0.468512
0.41389
0.364634
0.320525
0.281257
0.246476
0.215805
0.188862
0.165263
0.144621
0.126541
0.110627
0.0964908
0.0837735
0.072157
0.0613716
0.0511956
0.0414522
0.0320021
0.0227399
0.0136061
0.00453378
0.372559
1.11999
1.87261
2.62835
3.37731
4.10032
4.76995
5.355
5.82776
6.17075
6.37948
6.46061
6.42827
6.30013
6.09441
5.8285
5.51858
5.17977
4.82626
4.47071
4.1231
3.79022
3.47599
3.18238
2.91015
2.65944
2.43003
2.22136
2.03239
1.86147
1.70632
1.56437
1.43319
1.31094
1.19633
1.08859
0.987263
0.892058
0.802778
0.71932
0.64168
0.569955
0.504278
0.444703
0.391125
0.343284
0.300815
0.2633
0.230306
0.201405
0.176174
0.154183
0.134994
0.118155
0.103224
0.0897917
0.0775001
0.0660518
0.0552065
0.0447765
0.0346169
0.0246225
0.0147428
0.00491484
0.404002
1.21647
2.04017
2.87561
3.71312
4.53021
5.29226
5.95832
6.49181
6.87072
7.09112
7.1635
7.10705
6.94426
6.69702
6.38524
6.02697
5.639
5.23748
4.83713
4.44933
4.08113
3.73603
3.41534
3.11922
2.84741
2.59953
2.37495
2.17252
1.99036
1.82564
1.67509
1.53572
1.40538
1.28274
1.1671
1.05809
0.955492
0.859136
0.768932
0.68491
0.607256
0.536225
0.471953
0.414337
0.363062
0.317686
0.277716
0.242658
0.212042
0.185408
0.16229
0.142206
0.124647
0.109108
0.0951229
0.082296
0.0703028
0.058887
0.0478521
0.0370506
0.0263809
0.0158064
0.0052717
0.432567
1.30494
2.19642
3.11135
4.04115
4.95992
5.82418
6.5801
7.1791
7.59368
7.82171
7.87923
7.79211
7.58879
7.29511
6.93336
6.52317
6.08273
5.63032
5.18329
4.75468
4.35152
3.97645
3.6298
3.31092
3.01907
2.75375
2.51432
2.29967
2.10771
1.93496
1.7772
1.63072
1.49309
1.36302
1.23993
1.12365
1.01405
0.910953
0.814286
0.7241
0.64069
0.564491
0.49576
0.43439
0.37998
0.331991
0.28984
0.252968
0.220867
0.193047
0.169015
0.148246
0.13017
0.114206
0.0998274
0.0865984
0.0741711
0.062276
0.050711
0.0393272
0.0280308
0.0168052
0.00560687
0.457655
1.38362
2.33858
3.3322
4.35824
5.3877
6.36635
7.22322
7.89336
8.34273
8.57307
8.60838
8.48316
8.23308
7.8881
7.47249
7.00703
6.51076
6.00431
5.50863
5.03879
4.60139
4.19756
3.82631
3.48588
3.17502
2.89322
2.63995
2.41426
2.21399
2.03488
1.87136
1.71882
1.57464
1.43762
1.30748
1.18429
1.06803
0.958519
0.855656
0.759482
0.670433
0.589214
0.516252
0.451413
0.394173
0.343865
0.2998
0.261351
0.227981
0.19918
0.174436
0.153188
0.134797
0.118589
0.103969
0.0904629
0.0777041
0.0654133
0.0533855
0.0414711
0.0295874
0.0177464
0.00592234
0.478645
1.45066
2.4636
3.53422
4.6605
5.81115
6.91925
7.89101
8.63881
9.12097
9.34672
9.35105
9.17928
8.87604
8.47512
8.00214
7.47845
6.92296
6.35891
5.81243
5.30132
4.83085
4.39979
4.0055
3.64484
3.31594
3.01852
2.75228
2.51664
2.30964
2.12601
1.9583
1.80072
1.6506
1.50703
1.3701
1.24033
1.11774
1.00213
0.893328
0.791306
0.696663
0.610521
0.533552
0.465545
0.405785
0.353455
0.307736
0.267931
0.23349
0.203896
0.178629
0.157104
0.138601
0.12233
0.107611
0.0939451
0.0809486
0.0683375
0.0559076
0.043506
0.0310644
0.0186357
0.00621941
0.494932
1.50417
2.56824
3.71301
4.94323
6.22709
7.48321
8.58753
9.42036
9.93148
10.1438
10.1068
9.87897
9.51613
9.05512
8.52174
7.93747
7.31935
6.69345
6.0938
5.54186
5.04008
4.58368
4.16817
3.78863
3.44256
3.13029
2.8518
2.60715
2.39508
2.20905
2.03882
1.87711
1.72156
1.57168
1.42815
1.29206
1.16349
1.04207
0.927602
0.819832
0.719551
0.628526
0.54778
0.476926
0.414969
0.360915
0.313795
0.272836
0.237503
0.207286
0.181669
0.160066
0.14166
0.125503
0.11082
0.0970999
0.0839501
0.0710854
0.0583087
0.0454557
0.0324743
0.0194767
0.00649833
0.505953
1.54235
2.64923
3.86378
5.2009
6.63141
8.05841
9.3178
10.2438
10.7772
10.965
10.8746
10.58
10.1515
9.62686
9.03066
8.38443
7.70025
7.00716
6.35158
5.76002
5.22944
4.74985
4.31522
3.91823
3.55565
3.22918
2.93897
2.686
2.47062
2.28472
2.11381
1.94871
1.78807
1.63202
1.48189
1.33976
1.20554
1.07863
0.958797
0.845342
0.739251
0.643315
0.559047
0.485707
0.421882
0.36641
0.318132
0.276195
0.24013
0.209438
0.183626
0.16214
0.144052
0.128186
0.113659
0.0999796
0.0867511
0.0736911
0.0606194
0.0473439
0.033827
0.0202697
0.00675798
0.511234
1.56361
2.70339
3.98146
5.42711
7.01881
8.64468
10.0882
11.1161
11.6607
11.8104
11.653
11.2793
10.7798
10.1891
9.52814
8.82005
8.06642
7.29904
6.58426
5.95545
5.39949
4.89904
4.4477
4.03472
3.656
3.31591
3.01427
2.75327
2.5365
2.35385
2.18428
2.01622
1.85069
1.68843
1.53156
1.38367
1.24418
1.11206
0.98725
0.868148
0.755895
0.654935
0.567459
0.492047
0.426687
0.370109
0.320907
0.278137
0.241478
0.21044
0.18456
0.163387
0.145856
0.13046
0.116188
0.102634
0.0893915
0.0761839
0.0628699
0.0491951
0.03513
0.0210111
0.00699548
0.510417
1.56664
2.72783
4.06085
5.61455
7.38251
9.24137
10.9072
12.0458
12.5837
12.6795
12.4401
11.9729
11.3987
10.7406
10.0132
9.24563
8.4193
7.56775
6.78976
6.12794
5.55113
5.03201
4.5668
4.13935
3.74431
3.39125
3.07825
2.80886
2.59274
2.41738
2.25136
2.08028
1.90992
1.74132
1.57729
1.424
1.27967
1.14259
1.01333
0.888604
0.76958
0.663383
0.573119
0.496123
0.429545
0.372187
0.322288
0.278785
0.241656
0.210376
0.184522
0.163857
0.147158
0.13241
0.118462
0.105108
0.0919079
0.0785874
0.0650901
0.0510357
0.0363875
0.0216922
0.00720579
0.503297
1.55054
2.72013
4.09689
5.75503
7.71389
9.84687
11.7856
13.0436
13.5462
13.5713
13.234
12.6556
12.0056
11.2806
10.4843
9.66323
8.76131
7.81142
6.96527
6.2775
5.68571
5.1494
4.67388
4.23355
3.82118
3.45605
3.13156
2.85238
2.63917
2.47645
2.31643
2.14141
1.96626
1.79108
1.61909
1.46094
1.31231
1.17038
1.03746
0.907136
0.780349
0.668582
0.576133
0.498138
0.43061
0.372825
0.322452
0.278252
0.240767
0.209332
0.183544
0.163588
0.148047
0.134128
0.120527
0.107443
0.0943342
0.0809165
0.0673107
0.0528967
0.037599
0.0222982
0.0073813
0.48984
1.51488
2.67851
4.08483
5.83963
8.00199
10.458
12.7382
14.1226
14.5455
14.4841
14.033
13.3202
12.5985
11.8087
10.9389
10.0759
9.0963
8.02727
7.10693
6.40466
5.80524
5.25162
4.77045
4.319
3.88689
3.5113
3.17504
2.8831
2.67521
2.53248
2.38114
2.19989
2.02013
1.83813
1.65677
1.4947
1.34241
1.19546
1.0601
0.924276
0.788165
0.670361
0.576626
0.498335
0.430019
0.372209
0.321588
0.276631
0.238915
0.207399
0.181644
0.162599
0.148627
0.135716
0.122414
0.109678
0.0967036
0.0831735
0.0695648
0.0548158
0.0387585
0.0228063
0.00751148
0.470197
1.45979
2.602
4.02062
5.8589
8.23311
11.069
13.7847
15.2997
15.5745
15.4158
14.8367
13.9571
13.1757
12.3257
11.3726
10.4882
9.43016
8.21121
7.20941
6.51072
5.91262
5.33841
4.8583
4.3978
3.94117
3.55819
3.20992
2.89977
2.69984
2.58738
2.44755
2.2556
2.072
1.88304
1.6899
1.52551
1.37039
1.2177
1.08183
0.940711
0.792873
0.668423
0.574763
0.497015
0.427864
0.370534
0.319904
0.273985
0.236205
0.204678
0.17881
0.160885
0.149019
0.137292
0.12413
0.111849
0.0990515
0.0853426
0.0718899
0.0568423
0.0398518
0.0231846
0.00758277
0.444702
1.38599
2.49061
3.90121
5.8032
8.39031
11.6698
14.9513
16.5969
16.6183
16.3649
15.6467
14.5526
13.7372
12.8345
11.7778
10.9065
9.77168
8.35707
7.26551
6.59822
6.012
5.4084
4.93961
4.47262
3.9829
3.59823
3.23801
2.90048
2.71129
2.64366
2.51826
2.30772
2.12234
1.92656
1.7176
1.55369
1.39682
1.23664
1.10334
0.957359
0.794143
0.662314
0.570782
0.494565
0.42417
0.368004
0.317642
0.270329
0.232749
0.201291
0.175001
0.158406
0.149373
0.138994
0.125647
0.113994
0.101421
0.0873802
0.0743309
0.0590425
0.0408526
0.0233908
0.00757874
0.413861
1.29473
2.34538
3.72491
5.66329
8.4531
12.2441
16.2739
18.0426
17.6513
17.3312
16.4689
15.0868
14.2852
13.3405
12.1419
11.3398
10.1336
8.45571
7.2655
6.67166
6.10923
5.45829
5.01714
4.54704
4.00953
3.63343
3.26201
2.8824
2.70688
2.70479
2.59665
2.35438
2.1718
1.96985
1.7384
1.57976
1.42251
1.25136
1.12551
0.97546
0.791391
0.651379
0.56504
0.491486
0.418838
0.364852
0.315093
0.265601
0.228668
0.197399
0.170131
0.155078
0.14988
0.140995
0.126881
0.11616
0.10387
0.0892024
0.0769457
0.0615068
0.0417175
0.0233714
0.00748068
0.378326
1.18781
2.16846
3.49173
5.43104
8.3974
12.7656
17.8
19.6749
18.6309
18.318
17.3152
15.5305
14.8258
13.8536
12.4442
11.8009
10.5343
8.49365
7.19655
6.73825
6.21245
5.48174
5.09463
4.626
4.01633
3.66655
3.28592
2.84151
2.68261
2.77551
2.68712
2.39211
2.22134
2.01466
1.74987
1.60453
1.44869
1.26019
1.14952
0.996704
0.783667
0.634716
0.558072
0.488438
0.411581
0.361348
0.312624
0.259628
0.224111
0.193213
0.164059
0.150754
0.150789
0.143511
0.127667
0.118411
0.106485
0.0906654
0.0798118
0.0643601
0.0423773
0.0230617
0.00726887
0.338861
1.06745
1.96303
3.20364
5.10033
8.19593
13.1939
19.5935
21.5444
19.4904
19.3345
18.2072
15.8406
15.371
14.3906
12.6522
12.3078
10.9993
8.45131
7.04193
6.80906
6.33282
5.46783
5.17735
4.71642
3.99537
3.70149
3.31552
2.77223
2.63279
2.86231
2.79549
2.41505
2.27252
2.06366
1.74822
1.62933
1.47717
1.26042
1.17693
1.02339
0.769506
0.611137
0.550669
0.486287
0.401826
0.357837
0.310714
0.252067
0.219263
0.189025
0.156577
0.145208
0.15243
0.146821
0.127721
0.120845
0.109396
0.0915386
0.0830368
0.0677727
0.0427258
0.022387
0.00692437
0.296302
0.936185
1.7332
2.86474
4.66816
7.81934
13.468
21.7387
23.7194
20.1288
20.4005
19.18
15.9537
15.9417
14.9774
12.7164
12.8856
11.5638
8.30074
6.78032
6.90031
6.48551
5.39899
5.27293
4.82804
3.93401
3.74381
3.35904
2.66693
2.54946
2.97397
2.92944
2.41399
2.32787
2.12083
1.72763
1.65626
1.51066
1.24775
1.20991
1.05861
0.746732
0.579124
0.543968
0.486171
0.388585
0.354784
0.310002
0.242338
0.21438
0.185233
0.147383
0.138106
0.155238
0.15129
0.126589
0.123613
0.112798
0.0914689
0.086773
0.0719756
0.0426036
0.0212666
0.00643155
0.251513
0.796752
1.48383
2.48127
4.13572
7.23843
13.4982
24.3462
26.2918
20.3977
21.5518
20.2876
15.7777
16.5717
15.6532
12.563
13.5701
12.2752
8.00268
6.38512
7.03485
6.69092
5.24824
5.39253
4.97449
3.81312
3.80147
3.42782
2.51544
2.42187
3.12222
3.09917
2.37502
2.39149
2.19196
1.67949
1.68858
1.55306
1.21574
1.25149
1.10649
0.712198
0.5368
0.539562
0.48958
0.370284
0.352834
0.311343
0.229523
0.209814
0.182375
0.136064
0.128979
0.159787
0.157397
0.123584
0.126954
0.116979
0.0899317
0.0912381
0.0772769
0.0417765
0.0196199
0.00578104
0.205349
0.651938
1.22025
2.06146
3.50947
6.42768
13.1562
27.5593
29.3855
20.0851
22.8483
21.6092
15.1806
17.3126
16.4749
12.0849
14.4107
13.1963
7.503
5.82389
7.24385
6.97618
4.97578
5.55235
5.17464
3.60456
3.88589
3.53716
2.30437
2.23567
3.32247
3.31817
2.27788
2.46978
2.28528
1.5913
1.73117
1.60992
1.15497
1.30586
1.17243
0.661478
0.481923
0.539613
0.498443
0.344549
0.352913
0.315886
0.212247
0.206074
0.181168
0.122068
0.117187
0.166821
0.165776
0.117704
0.131229
0.122357
0.0861695
0.096742
0.0840814
0.0399077
0.017376
0.00497284
0.158616
0.50445
0.948012
1.61517
2.8019
5.37069
12.2617
31.5619
33.1666
18.8942
24.384
23.2566
13.9767
18.2407
17.5234
11.1313
15.4762
14.4083
6.7284
5.05809
7.56847
7.37707
4.52471
5.77574
5.45419
3.26824
4.01319
3.70708
2.01647
1.97219
3.59463
3.60418
2.09388
2.57248
2.41219
1.44531
1.7912
1.68897
1.05207
1.37887
1.2634
0.588477
0.411905
0.546972
0.515254
0.307942
0.356345
0.325156
0.188521
0.203882
0.182542
0.104675
0.10188
0.177294
0.177265
0.107526
0.136975
0.129519
0.0791151
0.103723
0.0929118
0.0365229
0.0144891
0.00401894
0.112047
0.356801
0.672545
1.15328
2.03183
4.06772
10.5674
36.5857
37.8557
16.4194
26.2999
25.3832
11.9097
19.4649
18.9097
9.49351
16.8612
16.0142
5.58139
4.04313
8.06156
7.94033
3.81595
6.09568
5.84755
2.74848
4.20598
3.96318
1.62985
1.60754
3.96394
3.98043
1.78348
2.71388
2.58808
1.21696
1.87891
1.80071
0.888521
1.47858
1.38821
0.484976
0.323878
0.565284
0.543201
0.255649
0.365007
0.341148
0.155555
0.204267
0.187676
0.0829681
0.0819545
0.19241
0.192963
0.0910866
0.144966
0.139271
0.0672978
0.112794
0.104431
0.0309671
0.010958
0.00294491
0.0662748
0.211223
0.398915
0.687006
1.22388
2.54578
7.74046
42.9198
43.7435
12.1167
28.7996
28.1931
8.63316
21.137
20.7831
6.88971
18.6934
18.1425
3.93465
2.72904
8.78901
8.72645
2.74228
6.5579
6.39997
1.96976
4.49546
4.33731
1.11727
1.11179
4.46175
4.47707
1.29331
2.91439
2.83327
0.872907
2.00853
1.95912
0.639252
1.616
1.55782
0.340123
0.214817
0.599086
0.586337
0.181105
0.381527
0.36644
0.109546
0.208673
0.198033
0.0557996
0.0560085
0.213658
0.214306
0.065734
0.156291
0.152693
0.0487339
0.124797
0.119465
0.0223542
0.00685229
0.00178929
0.0218293
0.0696014
0.13157
0.22706
0.406889
0.871457
3.34204
50.9191
51.2084
5.27102
32.1673
31.9515
3.68721
23.4629
23.3401
2.94705
21.1439
20.9499
1.62487
1.06167
9.83077
9.81295
1.16154
7.22454
7.16976
0.831858
4.924
4.86819
0.445383
0.448022
5.12631
5.13285
0.552947
3.20237
3.17398
0.368881
2.19948
2.18243
0.271054
1.80591
1.78557
0.139851
0.0817176
0.653854
0.649776
0.0755809
0.409507
0.404295
0.0454196
0.219092
0.215376
0.0217662
0.0222953
0.242853
0.243149
0.0279667
0.172443
0.1712
0.0208017
0.140876
0.139024
0.00950907
0.0023459
0.000600085
)
;

boundaryField
{
    left
    {
        type            calculated;
        value           uniform 0;
    }
    right
    {
        type            calculated;
        value           uniform 0;
    }
    interface
    {
        type            calculated;
        value           nonuniform List<scalar> 
64
(
0.0218293
0.0696014
0.13157
0.22706
0.406889
0.871457
3.34204
50.9191
51.2084
5.27102
32.1673
31.9515
3.68721
23.4629
23.3401
2.94705
21.1439
20.9499
1.62487
1.06167
9.83077
9.81295
1.16154
7.22454
7.16976
0.831858
4.924
4.86819
0.445383
0.448022
5.12631
5.13285
0.552947
3.20237
3.17398
0.368881
2.19948
2.18243
0.271054
1.80591
1.78557
0.139851
0.0817176
0.653854
0.649776
0.0755809
0.409507
0.404295
0.0454196
0.219092
0.215376
0.0217662
0.0222953
0.242853
0.243149
0.0279667
0.172443
0.1712
0.0208017
0.140876
0.139024
0.00950907
0.0023459
0.000600085
)
;
    }
    bottom
    {
        type            calculated;
        value           nonuniform List<scalar> 
64
(
0.0220999
0.0660533
0.109243
0.151093
0.190945
0.228073
0.261718
0.291151
0.315753
0.335072
0.348882
0.357187
0.360218
0.358394
0.352274
0.342507
0.329784
0.3148
0.298216
0.280634
0.262583
0.244505
0.226753
0.209595
0.193223
0.177764
0.163286
0.149815
0.13734
0.12582
0.115196
0.105399
0.0963512
0.0879812
0.0802216
0.0730149
0.0663132
0.0600788
0.0542824
0.0489016
0.0439194
0.0393221
0.0350978
0.0312344
0.0277189
0.0245361
0.0216688
0.0190974
0.0168006
0.0147558
0.0129392
0.011327
0.00989492
0.00861946
0.00747792
0.00644895
0.00551293
0.00465219
0.00385114
0.0030963
0.00237616
0.00168092
0.00100227
0.000333071
)
;
    }
    defaultFaces
    {
        type            empty;
    }
}


// ************************************************************************* //
