/*--------------------------------*- C++ -*----------------------------------*\
| =========                 |                                                 |
| \\      /  F ield         | OpenFOAM: The Open Source CFD Toolbox           |
|  \\    /   O peration     | Version:  5.x                                   |
|   \\  /    A nd           | Web:      www.OpenFOAM.org                      |
|    \\/     M anipulation  |                                                 |
\*---------------------------------------------------------------------------*/
FoamFile
{
    version     2.0;
    format      ascii;
    class       volScalarField;
    location    "6.8";
    object      T;
}
// * * * * * * * * * * * * * * * * * * * * * * * * * * * * * * * * * * * * * //

dimensions      [0 0 0 1 0 0 0];

internalField   nonuniform List<scalar> 
2048
(
9.85505
9.85574
9.85711
9.85915
9.86183
9.86512
9.86896
9.8733
9.87806
9.88316
9.88853
9.89407
9.89969
9.90532
9.91089
9.91633
9.92159
9.92664
9.93143
9.93596
9.9402
9.94416
9.94784
9.95125
9.95439
9.95729
9.95995
9.96239
9.96463
9.96668
9.96856
9.97028
9.97185
9.97329
9.9746
9.9758
9.97689
9.97787
9.97876
9.97957
9.98029
9.98094
9.98152
9.98204
9.9825
9.9829
9.98326
9.98358
9.98386
9.9841
9.98432
9.98451
9.98467
9.98482
9.98494
9.98505
9.98515
9.98522
9.98529
9.98534
9.98539
9.98542
9.98544
9.98545
9.57091
9.57295
9.57703
9.58308
9.59104
9.60079
9.6122
9.62508
9.63922
9.65439
9.67032
9.68676
9.70345
9.72016
9.73667
9.7528
9.76839
9.78333
9.79752
9.8109
9.82345
9.83516
9.84603
9.85609
9.86538
9.87392
9.88177
9.88898
9.89559
9.90164
9.90719
9.91226
9.91691
9.92115
9.92502
9.92854
9.93175
9.93466
9.93729
9.93966
9.9418
9.94371
9.94542
9.94694
9.9483
9.9495
9.95056
9.95149
9.95231
9.95304
9.95367
9.95423
9.95471
9.95514
9.9555
9.95582
9.9561
9.95633
9.95653
9.95669
9.95681
9.9569
9.95697
9.957
9.29764
9.30101
9.3077
9.31765
9.33073
9.34678
9.36555
9.38676
9.41006
9.43503
9.46127
9.48833
9.51579
9.54325
9.57037
9.59683
9.62239
9.64685
9.67006
9.69195
9.71245
9.73156
9.74929
9.76569
9.78081
9.79473
9.80751
9.81923
9.82999
9.83984
9.84886
9.85711
9.86466
9.87157
9.87786
9.8836
9.88882
9.89355
9.89783
9.90168
9.90515
9.90826
9.91104
9.91351
9.91571
9.91766
9.91937
9.92089
9.92222
9.92339
9.92442
9.92532
9.92611
9.92679
9.92739
9.92791
9.92835
9.92873
9.92905
9.92931
9.92951
9.92966
9.92976
9.92981
9.03401
9.03865
9.0479
9.06165
9.07975
9.10198
9.12801
9.15743
9.18975
9.2244
9.26079
9.2983
9.33632
9.37432
9.41178
9.4483
9.48353
9.51719
9.54911
9.57915
9.60727
9.63344
9.6577
9.68012
9.70078
9.71978
9.73722
9.75321
9.76788
9.78131
9.7936
9.80486
9.81516
9.82457
9.83316
9.84098
9.8481
9.85455
9.86038
9.86564
9.87036
9.8746
9.87838
9.88174
9.88472
9.88737
9.8897
9.89175
9.89356
9.89515
9.89654
9.89776
9.89882
9.89975
9.90056
9.90126
9.90187
9.90238
9.90281
9.90316
9.90344
9.90365
9.90378
9.90385
8.77896
8.78486
8.7966
8.8141
8.83715
8.86549
8.89871
8.93629
8.9776
9.02189
9.06837
9.11625
9.16473
9.21311
9.26074
9.30709
9.35173
9.39432
9.43463
9.47251
9.50791
9.54082
9.57129
9.59941
9.6253
9.64909
9.67092
9.69093
9.70926
9.72605
9.74143
9.7555
9.76838
9.78015
9.79089
9.80068
9.80958
9.81764
9.82494
9.83151
9.83741
9.84269
9.84741
9.8516
9.85531
9.8586
9.8615
9.86405
9.86629
9.86826
9.86999
9.8715
9.87282
9.87397
9.87498
9.87585
9.8766
9.87724
9.87777
9.87821
9.87856
9.87881
9.87898
9.87907
8.53166
8.53878
8.55298
8.57415
8.6021
8.63651
8.67692
8.72268
8.773
8.82696
8.88357
8.94181
9.0007
9.05937
9.11704
9.17305
9.22688
9.27814
9.32656
9.37198
9.41434
9.45366
9.49002
9.52353
9.55434
9.58263
9.60857
9.63234
9.6541
9.67404
9.69229
9.709
9.72429
9.73827
9.75103
9.76266
9.77322
9.7828
9.79146
9.79926
9.80626
9.81252
9.81809
9.82305
9.82744
9.83131
9.83473
9.83774
9.84038
9.84269
9.84472
9.8465
9.84805
9.84941
9.85059
9.85162
9.8525
9.85326
9.85389
9.85441
9.85482
9.85512
9.85532
9.85542
8.29141
8.29973
8.31632
8.34112
8.37391
8.41438
8.46199
8.51599
8.57543
8.63917
8.70598
8.77464
8.84397
8.9129
8.9805
9.04602
9.10885
9.16854
9.2248
9.27746
9.32647
9.37188
9.4138
9.45238
9.48782
9.52033
9.5501
9.57737
9.60233
9.62519
9.64612
9.66528
9.68283
9.69887
9.71351
9.72686
9.73899
9.74998
9.75991
9.76884
9.77686
9.78402
9.79039
9.79605
9.80106
9.80547
9.80936
9.81277
9.81577
9.8184
9.8207
9.82271
9.82448
9.82602
9.82736
9.82852
9.82953
9.83039
9.83111
9.8317
9.83217
9.83252
9.83275
9.83286
8.05765
8.06712
8.08606
8.1144
8.15199
8.19851
8.25337
8.31572
8.38442
8.45809
8.53527
8.61447
8.69429
8.77347
8.85095
8.92585
8.9975
9.0654
9.12923
9.18884
9.24419
9.29537
9.34253
9.38588
9.42564
9.46206
9.49541
9.52592
9.55384
9.5794
9.60282
9.62426
9.6439
9.66186
9.67827
9.69321
9.7068
9.7191
9.73021
9.74021
9.74916
9.75715
9.76426
9.77055
9.77611
9.78101
9.78532
9.7891
9.79242
9.79532
9.79787
9.80009
9.80204
9.80374
9.80523
9.80652
9.80764
9.80859
9.80939
9.81005
9.81057
9.81096
9.81122
9.81135
7.82991
7.8405
7.8617
7.89351
7.93584
7.98839
8.05057
8.1214
8.19955
8.28339
8.37114
8.46103
8.55143
8.64089
8.7282
8.81238
8.89268
8.96857
9.03972
9.10598
9.16736
9.22398
9.27607
9.32386
9.36765
9.40771
9.44435
9.47786
9.50851
9.53658
9.56228
9.58584
9.60742
9.62717
9.64521
9.66165
9.67658
9.69011
9.70232
9.71329
9.7231
9.73185
9.73962
9.7465
9.75256
9.75789
9.76257
9.76668
9.77028
9.77342
9.77618
9.77859
9.7807
9.78254
9.78415
9.78556
9.78677
9.78781
9.78869
9.78941
9.78999
9.79041
9.7907
9.79084
7.60786
7.6195
7.64286
7.67802
7.725
7.78356
7.85313
7.93263
8.02048
8.11474
8.21331
8.3141
8.41521
8.51499
8.61209
8.70544
8.79423
8.87789
8.95609
9.02871
9.0958
9.15756
9.21425
9.26618
9.3137
9.35713
9.3968
9.43306
9.46622
9.49658
9.52439
9.5499
9.57328
9.59469
9.61425
9.63207
9.64826
9.66292
9.67614
9.68801
9.69862
9.70806
9.71643
9.72382
9.73033
9.73604
9.74106
9.74544
9.74928
9.75264
9.75558
9.75815
9.7604
9.76237
9.76409
9.76559
9.76689
9.76801
9.76896
9.76974
9.77036
9.77082
9.77113
9.77128
7.39121
7.40384
7.42923
7.46759
7.51909
7.58363
7.66066
7.74901
7.84686
7.95188
8.06157
8.17348
8.28543
8.39558
8.50244
8.60486
8.70198
8.7932
8.87819
8.95687
9.02935
9.09591
9.15689
9.21266
9.26362
9.31014
9.3526
9.39137
9.42682
9.45927
9.48902
9.51632
9.54136
9.56431
9.58528
9.60439
9.62175
9.63746
9.65161
9.66431
9.67564
9.68571
9.69462
9.70247
9.70937
9.71542
9.72071
9.72534
9.72939
9.73293
9.73602
9.73872
9.74109
9.74316
9.74498
9.74657
9.74796
9.74915
9.75015
9.75099
9.75165
9.75214
9.75247
9.75264
7.17977
7.19329
7.22055
7.26193
7.31778
7.38821
7.47278
7.57022
7.67841
7.79457
7.91571
8.039
8.16194
8.2825
8.39909
8.51047
8.61575
8.71432
8.80584
8.89027
8.96782
9.03885
9.1038
9.16312
9.21723
9.26658
9.31158
9.35264
9.39015
9.4245
9.45602
9.48497
9.51155
9.53593
9.55821
9.57852
9.59696
9.61364
9.62865
9.6421
9.6541
9.66473
9.67412
9.68237
9.68961
9.69595
9.70149
9.70632
9.71054
9.71423
9.71745
9.72026
9.72273
9.72489
9.72679
9.72846
9.72991
9.73117
9.73223
9.73311
9.73382
9.73434
9.73469
9.73487
6.9734
6.9877
7.01664
7.06078
7.12077
7.19698
7.28913
7.39592
7.51486
7.64259
7.77557
7.9105
8.04458
8.1756
8.30186
8.4221
8.53538
8.64107
8.73884
8.82871
8.91099
8.98617
9.05478
9.11734
9.17435
9.22628
9.27357
9.31669
9.35607
9.39213
9.42526
9.45572
9.48374
9.50944
9.53294
9.55436
9.5738
9.59137
9.60718
9.62133
9.63392
9.64506
9.65487
9.66347
9.671
9.67758
9.68332
9.68833
9.69269
9.69649
9.69981
9.70272
9.70526
9.7075
9.70948
9.71121
9.71273
9.71404
9.71515
9.71608
9.71682
9.71738
9.71775
9.71793
6.77201
6.78696
6.81734
6.86395
6.92778
7.00959
7.10938
7.22582
7.35598
7.49578
7.64101
7.78787
7.93323
8.07472
8.2106
8.33957
8.46067
8.57327
8.67701
8.77198
8.85865
8.93765
9.00961
9.07514
9.13479
9.18904
9.23841
9.28337
9.32442
9.36202
9.39659
9.42846
9.45779
9.48473
9.50937
9.53182
9.55219
9.57058
9.58712
9.6019
9.61503
9.62663
9.6368
9.64571
9.65348
9.66025
9.66616
9.6713
9.67578
9.67967
9.68307
9.68604
9.68865
9.69095
9.69299
9.69478
9.69635
9.69771
9.69888
9.69985
9.70063
9.70121
9.7016
9.70179
6.57555
6.59102
6.62256
6.67128
6.73859
6.82575
6.93319
7.0596
7.20155
7.35399
7.5119
7.67098
7.82774
7.9797
8.12512
8.26267
8.39142
8.51072
8.62015
8.71989
8.81059
8.89307
8.96809
9.03631
9.09834
9.15471
9.20592
9.25253
9.29504
9.334
9.36989
9.40303
9.4336
9.46169
9.4874
9.51081
9.53203
9.55119
9.56839
9.58375
9.59738
9.60937
9.61986
9.62901
9.63698
9.64392
9.64995
9.65519
9.65975
9.66372
9.66718
9.6702
9.67285
9.6752
9.67728
9.67912
9.68074
9.68216
9.68337
9.68438
9.68519
9.6858
9.6862
9.68641
6.38403
6.39984
6.43223
6.48263
6.55297
6.64516
6.76021
6.89699
7.05139
7.2171
7.38817
7.55976
7.72801
7.89038
8.04524
8.19122
8.32745
8.45324
8.56808
8.67221
8.76657
8.85221
8.92999
9.00064
9.06484
9.12309
9.17595
9.224
9.26779
9.30794
9.345
9.37934
9.41106
9.44023
9.46693
9.49123
9.51324
9.5331
9.55092
9.56681
9.58088
9.59322
9.60398
9.61333
9.62145
9.62851
9.63464
9.63996
9.64458
9.64859
9.65208
9.65513
9.65782
9.6602
9.66232
9.66421
9.66587
9.66733
9.66858
9.66963
9.67048
9.67111
9.67153
9.67175
6.19747
6.21345
6.24633
6.29793
6.37075
6.46752
6.59009
6.73767
6.90535
7.08505
7.26975
7.45412
7.6339
7.8066
7.97077
8.12501
8.26852
8.40064
8.5206
8.62873
8.72636
8.81484
8.89509
8.96794
9.03408
9.09402
9.14833
9.19764
9.24253
9.28368
9.32179
9.35724
9.39005
9.42025
9.44789
9.47301
9.49575
9.51625
9.53463
9.551
9.56548
9.57813
9.5891
9.5986
9.60683
9.61398
9.62017
9.62554
9.6302
9.63423
9.63774
9.64081
9.64351
9.64592
9.64807
9.64999
9.6517
9.6532
9.65449
9.65558
9.65646
9.65712
9.65756
9.65777
6.01591
6.03186
6.06487
6.1171
6.19177
6.29256
6.42247
6.58135
6.76332
6.95778
7.15656
7.35402
7.54531
7.72817
7.90152
8.06382
8.21443
8.35274
8.47754
8.58924
8.68972
8.78073
8.86319
8.93798
9.0059
9.06734
9.12291
9.17331
9.21911
9.26109
9.30013
9.33663
9.37048
9.40164
9.43017
9.45606
9.47946
9.50056
9.51945
9.53627
9.55112
9.56403
9.57517
9.58477
9.59308
9.60027
9.6065
9.6119
9.61657
9.62061
9.62412
9.62719
9.62989
9.63231
9.63449
9.63644
9.63819
9.63973
9.64106
9.64218
9.6431
9.64378
9.64423
9.64446
5.8394
5.85513
5.88786
5.94013
6.01588
6.11998
6.25694
6.42769
6.62524
6.8353
7.04856
7.25941
7.46212
7.6549
7.8373
8.00741
8.16493
8.30939
8.43872
8.5535
8.65639
8.74967
8.83407
8.91059
8.98013
9.04288
9.09954
9.15089
9.1974
9.24002
9.27987
9.31741
9.35226
9.38433
9.41371
9.4403
9.4643
9.48596
9.50531
9.52253
9.53773
9.55088
9.56212
9.57177
9.58012
9.58734
9.59358
9.59899
9.60366
9.60768
9.61118
9.61423
9.61692
9.61934
9.62154
9.62353
9.62531
9.62689
9.62826
9.62942
9.63036
9.63107
9.63154
9.63177
5.66801
5.68332
5.71535
5.76702
5.843
5.94951
6.09307
6.27632
6.49114
6.71765
6.94568
7.17028
7.38421
7.58654
7.77792
7.95556
8.11976
8.27043
8.40402
8.52128
8.62611
8.72143
8.80752
8.88554
8.9566
9.02051
9.07806
9.13024
9.17728
9.22034
9.26088
9.29948
9.3353
9.36822
9.39842
9.42566
9.4502
9.47237
9.49215
9.50973
9.52528
9.53862
9.54991
9.55956
9.56793
9.57514
9.58137
9.58677
9.59141
9.59541
9.59888
9.60189
9.60456
9.60698
9.6092
9.61122
9.61303
9.61464
9.61605
9.61724
9.61822
9.61896
9.61943
9.61967
5.50181
5.5165
5.54742
5.59781
5.67307
5.7809
5.93035
6.12681
6.36112
6.60492
6.84783
7.08666
7.31147
7.52282
7.72321
7.908
8.07861
8.23576
8.3733
8.49236
8.59859
8.69582
8.78336
8.86265
8.93518
9.00008
9.05835
9.11127
9.15866
9.20189
9.24303
9.28274
9.31951
9.35323
9.38426
9.41208
9.43707
9.45975
9.4799
9.4978
9.5137
9.5272
9.53848
9.54809
9.55644
9.56362
9.56981
9.5752
9.57981
9.58376
9.58719
9.59016
9.59278
9.59518
9.59743
9.59948
9.60131
9.60297
9.60441
9.60564
9.60666
9.60741
9.6079
9.60814
5.34083
5.35473
5.38415
5.43256
5.50606
5.61391
5.76826
5.97859
6.23549
6.49724
6.75481
7.00865
7.24377
7.46342
7.67306
7.86449
8.04111
8.20532
8.34648
8.46648
8.57352
8.67267
8.7614
8.84169
8.91576
8.98146
9.04023
9.0939
9.14142
9.18454
9.22614
9.26716
9.30484
9.33927
9.37116
9.39948
9.42484
9.44803
9.46849
9.48667
9.50297
9.51659
9.52778
9.53729
9.54562
9.55274
9.55888
9.56424
9.5688
9.57269
9.57608
9.57898
9.58155
9.58393
9.58621
9.58828
9.59014
9.59184
9.59331
9.59457
9.59563
9.59641
9.59691
9.59715
5.18514
5.19808
5.2256
5.27137
5.34201
5.44835
5.60617
5.83098
6.11473
6.39481
6.66633
6.93641
7.18098
7.40787
7.6274
7.82476
8.00683
8.17913
8.32351
8.44337
8.55055
8.65186
8.74147
8.82243
8.89825
8.96453
9.02355
9.07807
9.12549
9.16814
9.21008
9.25267
9.29122
9.32624
9.35909
9.3878
9.41342
9.43717
9.45787
9.47627
9.49304
9.50676
9.51777
9.52711
9.53543
9.54247
9.54852
9.55387
9.55837
9.56217
9.56551
9.56834
9.57083
9.57319
9.57551
9.57759
9.57948
9.58122
9.58272
9.58401
9.58513
9.58593
9.58643
9.58666
5.03477
5.04659
5.07189
5.11435
5.181
5.28407
5.44342
5.683
5.99967
6.29784
6.58189
6.87028
7.12299
7.35561
7.5863
7.78853
7.97518
8.15731
8.30437
8.42274
8.52926
8.63331
8.7234
8.80461
8.88261
8.94917
9.00812
9.06375
9.11081
9.15255
9.19464
9.23929
9.27861
9.31404
9.34803
9.377
9.40271
9.42714
9.44798
9.46652
9.4839
9.49767
9.50839
9.5175
9.52583
9.53277
9.5387
9.54406
9.54847
9.55217
9.55547
9.55821
9.5606
9.56292
9.56531
9.5674
9.5693
9.57111
9.57262
9.57394
9.57512
9.57595
9.57644
9.57667
4.88972
4.90031
4.92307
4.96165
5.02319
5.12104
5.27931
5.53335
5.89161
6.20661
6.50068
6.81081
7.06966
7.30583
7.55
7.75554
7.94538
8.14016
8.28911
8.40426
8.50917
8.61704
8.70707
8.78791
8.86886
8.9353
8.99372
9.05097
9.09733
9.1376
9.1796
9.22705
9.26696
9.30252
9.33798
9.36701
9.39261
9.41793
9.43877
9.45732
9.47555
9.4893
9.4996
9.50839
9.51681
9.52359
9.52936
9.53477
9.53907
9.54265
9.54593
9.54856
9.55082
9.5531
9.55558
9.55768
9.55957
9.56146
9.56299
9.56432
9.56559
9.56644
9.56692
9.56714
4.74998
4.75924
4.77924
4.81341
4.86876
4.95929
5.11312
5.38016
5.79245
6.12139
6.42147
6.75891
7.02085
7.25746
7.51903
7.72551
7.91642
8.12818
8.27779
8.38758
8.48967
8.60321
8.69234
8.77193
8.85712
8.92281
8.98006
9.0398
9.08503
9.12314
9.1647
9.21608
9.25625
9.29152
9.32899
9.35779
9.38298
9.40955
9.43019
9.44854
9.468
9.48163
9.49133
9.49972
9.50833
9.51492
9.52048
9.526
9.53016
9.53358
9.53686
9.53937
9.54147
9.54368
9.54632
9.54841
9.55027
9.55227
9.5538
9.55513
9.55651
9.55738
9.55784
9.55804
4.61554
4.6234
4.64044
4.66977
4.71798
4.79901
4.94418
5.22083
5.705
6.04245
6.34243
6.71595
6.97642
7.209
7.49428
7.69816
7.88687
8.12223
8.27048
8.37231
8.47001
8.59215
8.6791
8.75616
8.84762
8.91161
8.96678
9.03041
9.0739
9.10901
9.14958
9.20658
9.24643
9.2808
9.32116
9.3493
9.37365
9.40207
9.42218
9.44006
9.46129
9.47464
9.48355
9.49141
9.50041
9.50671
9.51198
9.51774
9.52171
9.52491
9.52827
9.53061
9.53252
9.53464
9.53751
9.53956
9.54137
9.54353
9.54503
9.54634
9.54788
9.54875
9.54919
9.54937
4.48635
4.49276
4.50672
4.5309
4.57114
4.64057
4.772
5.0517
5.63323
5.97
6.26089
6.68401
6.93618
7.1584
7.4772
7.67324
7.85485
8.12357
8.26724
8.35804
8.44923
8.58441
8.66724
8.73991
8.84075
8.90161
8.95339
9.02305
9.06393
9.09506
9.13379
9.19889
9.23749
9.27007
9.31467
9.34149
9.3644
9.39558
9.41471
9.43168
9.45551
9.46832
9.47619
9.48338
9.49305
9.49895
9.50382
9.50998
9.51369
9.51661
9.52013
9.52228
9.52394
9.52594
9.52915
9.53112
9.53283
9.53522
9.53666
9.53791
9.53968
9.54054
9.54093
9.54108
4.36232
4.36728
4.37809
4.3969
4.42856
4.48446
4.59639
4.86764
5.5827
5.9041
6.17315
6.6661
6.89992
7.10287
7.46994
7.65048
7.81779
8.13411
8.26805
8.34437
8.42612
8.58089
8.65665
8.72228
8.83714
8.89273
8.93927
9.01814
9.05512
9.08115
9.11675
9.19349
9.22938
9.25892
9.30977
9.3343
9.35494
9.39028
9.40772
9.42315
9.45081
9.46264
9.4692
9.47551
9.48629
9.49161
9.49591
9.50274
9.50607
9.50864
9.51245
9.51434
9.51572
9.51752
9.52126
9.52306
9.52462
9.52734
9.52866
9.52982
9.53191
9.53272
9.53305
9.53317
4.24339
4.24689
4.25454
4.26791
4.29058
4.3314
4.4177
4.66163
5.561
5.84462
6.0741
6.6665
6.86733
7.03868
7.47561
7.6296
7.77228
8.15651
8.27272
8.33093
8.39907
8.58286
8.64721
8.70211
8.8377
8.88484
8.92359
9.01628
9.04743
9.06721
9.09767
9.19108
9.22206
9.24682
9.30687
9.3277
9.3449
9.38641
9.40117
9.41418
9.44738
9.45756
9.46253
9.46768
9.4802
9.48466
9.48818
9.49606
9.49885
9.50092
9.50523
9.50679
9.50782
9.50935
9.51383
9.51538
9.51668
9.51991
9.52103
9.52201
9.52456
9.52528
9.52553
9.52562
4.12944
4.13151
4.13604
4.14398
4.15751
4.18222
4.23706
4.42411
5.57831
5.7911
5.95695
6.69108
6.83799
6.96087
7.49852
7.61034
7.71382
8.19451
8.28078
8.31747
8.36606
8.59212
8.63876
8.67782
8.84369
8.87782
8.90525
9.0183
9.04079
9.05322
9.07553
9.19265
9.21544
9.23306
9.30652
9.3216
9.33379
9.38437
9.39502
9.40435
9.44552
9.45303
9.45615
9.45974
9.47487
9.47806
9.48053
9.48999
9.49198
9.49341
9.4985
9.4996
9.50024
9.50135
9.50692
9.50805
9.50897
9.51293
9.51375
9.51445
9.51765
9.51819
9.51834
9.5184
4.02036
4.02104
4.02253
4.02515
4.02963
4.03786
4.05686
4.1423
5.64808
5.74256
5.8128
6.74779
6.81129
6.86302
7.5445
7.5924
7.6366
8.25314
8.29128
8.30392
8.32446
8.61113
8.63111
8.64743
8.85688
8.87148
8.88287
9.02536
9.035
9.03928
9.04901
9.19947
9.20941
9.21675
9.30948
9.31594
9.32101
9.38467
9.38921
9.39314
9.44564
9.44894
9.45001
9.4515
9.47045
9.4718
9.47281
9.4846
9.48544
9.48602
9.49229
9.49275
9.49297
9.49345
9.50056
9.50105
9.50143
9.50643
9.50678
9.50708
9.51119
9.51143
9.51148
9.5115
)
;

boundaryField
{
    left
    {
        type            zeroGradient;
    }
    right
    {
        type            zeroGradient;
    }
    interface
    {
        type            fixedValue;
        value           nonuniform List<scalar> 
64
(
3.96702
3.96702
3.96702
3.96702
3.96702
3.96702
3.96702
3.96702
5.71948
5.71948
5.71948
6.79854
6.79854
6.79854
7.58372
7.58372
7.58372
8.29709
8.29709
8.29709
8.29709
8.62747
8.62747
8.62747
8.86847
8.86847
8.86847
9.03232
9.03232
9.03232
9.03232
9.20653
9.20653
9.20653
9.31321
9.31321
9.31321
9.38639
9.38639
9.38639
9.44701
9.44701
9.44701
9.44701
9.46875
9.46875
9.46875
9.48226
9.48226
9.48226
9.48941
9.48941
9.48941
9.48941
9.49763
9.49763
9.49763
9.50338
9.50338
9.50338
9.50813
9.50813
9.50813
9.50813
)
;
    }
    bottom
    {
        type            fixedValue;
        value           uniform 10;
    }
    defaultFaces
    {
        type            empty;
    }
}


// ************************************************************************* //
