/*--------------------------------*- C++ -*----------------------------------*\
| =========                 |                                                 |
| \\      /  F ield         | OpenFOAM: The Open Source CFD Toolbox           |
|  \\    /   O peration     | Version:  5.x                                   |
|   \\  /    A nd           | Web:      www.OpenFOAM.org                      |
|    \\/     M anipulation  |                                                 |
\*---------------------------------------------------------------------------*/
FoamFile
{
    version     2.0;
    format      ascii;
    class       volScalarField;
    location    "4.4";
    object      gradTx;
}
// * * * * * * * * * * * * * * * * * * * * * * * * * * * * * * * * * * * * * //

dimensions      [0 -1 0 1 0 0 0];

internalField   nonuniform List<scalar> 
2048
(
0.0215899
0.0645243
0.106698
0.147537
0.186391
0.22254
0.255233
0.283756
0.307497
0.326017
0.339096
0.346747
0.349204
0.346888
0.340356
0.330257
0.317278
0.302107
0.285401
0.267757
0.249697
0.23166
0.213995
0.19697
0.180774
0.165534
0.151321
0.138159
0.12604
0.114924
0.104755
0.0954605
0.0869653
0.0791932
0.0720723
0.0655382
0.0595348
0.0540143
0.0489374
0.0442712
0.0399887
0.0360669
0.0324855
0.0292255
0.0262678
0.0235932
0.021181
0.0190099
0.0170578
0.0153022
0.0137204
0.0122899
0.0109886
0.00979542
0.00869046
0.00765546
0.00667421
0.00573277
0.00481964
0.00392574
0.00304426
0.00217039
0.00130085
0.000433415
0.0640288
0.19138
0.316531
0.437801
0.55326
0.660745
0.757989
0.842815
0.913362
0.968296
1.00695
1.02937
1.03629
1.02898
1.00914
0.978712
0.939773
0.894383
0.844499
0.791906
0.738155
0.684542
0.6321
0.58161
0.533627
0.488516
0.446475
0.407575
0.371778
0.338966
0.30896
0.281547
0.256496
0.233579
0.212581
0.193311
0.175602
0.159315
0.144333
0.130561
0.117919
0.106342
0.0957704
0.0861485
0.0774211
0.0695309
0.0624174
0.0560174
0.0502652
0.0450939
0.0404362
0.0362253
0.0323959
0.028885
0.0256336
0.0225872
0.0196979
0.0169242
0.0142322
0.0115952
0.00899332
0.0064127
0.00384415
0.00128099
0.105148
0.31435
0.520123
0.71977
0.910118
1.08753
1.24815
1.38823
1.50454
1.5948
1.65788
1.69388
1.7041
1.69073
1.65668
1.60525
1.53993
1.46416
1.3812
1.29401
1.20515
1.11674
1.03045
0.947536
0.868883
0.795054
0.726351
0.662866
0.604517
0.55109
0.502278
0.457712
0.417002
0.379763
0.34564
0.314316
0.28552
0.259025
0.234643
0.212223
0.191639
0.172785
0.15557
0.139906
0.125705
0.112873
0.101312
0.0909171
0.0815815
0.0731947
0.0656462
0.0588259
0.0526264
0.046944
0.0416808
0.0367475
0.0320646
0.0275644
0.0231915
0.0189026
0.0146661
0.0104604
0.00627237
0.00209079
0.145229
0.434316
0.719048
0.995844
1.26032
1.50728
1.7311
1.92623
2.0879
2.21272
2.29907
2.34718
2.35901
2.33785
2.28793
2.21401
2.12108
2.014
1.89737
1.77533
1.65142
1.52857
1.40905
1.29452
1.18615
1.08465
0.990386
0.903446
0.823679
0.750753
0.684209
0.623511
0.568092
0.517405
0.470949
0.428285
0.389043
0.352915
0.319651
0.289047
0.260939
0.235191
0.211684
0.190304
0.170931
0.153442
0.137699
0.123559
0.110873
0.0994876
0.0892505
0.0800095
0.0716152
0.0639236
0.0567986
0.0501155
0.0437642
0.0376512
0.0317006
0.0258542
0.0200698
0.0143195
0.00858944
0.00286428
0.184428
0.551789
0.914293
1.26765
1.60627
1.92331
2.21107
2.46187
2.66906
2.82796
2.9364
2.99487
3.00616
2.97487
2.90675
2.8082
2.68576
2.54584
2.3944
2.23678
2.07752
1.92031
1.76794
1.62245
1.4852
1.357
1.23825
1.12898
1.02894
0.937654
0.854495
0.778726
0.709588
0.646357
0.588384
0.535111
0.486074
0.440893
0.399261
0.360935
0.325718
0.293454
0.264002
0.237228
0.212991
0.191133
0.171482
0.153855
0.138061
0.123905
0.111193
0.0997318
0.0893298
0.0798029
0.0709762
0.0626894
0.0548015
0.0471939
0.0397714
0.0324624
0.025216
0.0179993
0.0108011
0.00360339
0.222785
0.666936
1.10629
1.53608
1.9496
2.33809
2.69143
2.99931
3.25274
3.44548
3.57478
3.64152
3.64965
3.60534
3.51613
3.39022
3.23588
3.06109
2.87328
2.67901
2.48382
2.29211
2.10717
1.93129
1.76595
1.612
1.46981
1.33932
1.22016
1.11169
1.01307
0.923325
0.841486
0.766635
0.697971
0.634821
0.576636
0.522974
0.473483
0.427884
0.385961
0.347544
0.312484
0.280636
0.251837
0.225901
0.202619
0.181768
0.163114
0.146422
0.131455
0.117979
0.105764
0.0945836
0.084222
0.0744829
0.0651941
0.0562119
0.0474233
0.0387449
0.0301197
0.0215112
0.0129144
0.00431048
0.260221
0.779586
1.29495
1.8014
2.29114
2.75332
3.17485
3.54206
3.84302
4.06955
4.21834
4.29092
4.29274
4.23199
4.11829
3.96184
3.77276
3.56072
3.33464
3.10239
2.87052
2.6441
2.42679
2.22105
2.0284
1.84964
1.68505
1.53447
1.39738
1.27292
1.16002
1.05743
0.963927
0.878388
0.799855
0.72755
0.660851
0.599266
0.542404
0.489964
0.441719
0.397496
0.357151
0.320535
0.287472
0.257746
0.231111
0.2073
0.186036
0.167041
0.150042
0.134764
0.120934
0.108285
0.09656
0.0855229
0.0749699
0.0647329
0.0546819
0.0447242
0.034799
0.0248685
0.0149375
0.00498827
0.296551
0.889244
1.47967
2.06319
2.63108
3.17007
3.6634
4.09311
4.44348
4.70394
4.87063
4.94614
4.93799
4.85685
4.71481
4.52426
4.29729
4.04531
3.77883
3.5071
3.23769
2.97629
2.72684
2.49183
2.27267
2.07005
1.88412
1.71458
1.56074
1.42153
1.29556
1.18128
1.07717
0.981873
0.894279
0.813519
0.738916
0.669941
0.606177
0.547306
0.493097
0.443391
0.398063
0.356974
0.319937
0.286706
0.256993
0.230484
0.206858
0.185796
0.166985
0.150114
0.134871
0.120942
0.108026
0.0958463
0.0841652
0.0727907
0.0615776
0.050426
0.0392742
0.0280856
0.0168789
0.00563956
0.331481
0.995111
1.65937
2.32046
2.96893
3.58881
4.15872
4.65518
5.05746
5.35206
5.53474
5.60971
5.58732
5.48134
5.3067
5.07821
4.80995
4.51513
4.20593
3.89309
3.58527
3.28869
3.00741
2.74376
2.49896
2.27346
2.06725
1.87988
1.7105
1.55779
1.42001
1.29523
1.18157
1.07743
0.981559
0.893011
0.811085
0.735227
0.665003
0.600082
0.54024
0.485347
0.435315
0.39003
0.3493
0.312845
0.280328
0.251382
0.225637
0.202736
0.18233
0.164075
0.147617
0.132599
0.118666
0.105498
0.0928224
0.080424
0.0681442
0.0558783
0.0435671
0.0311776
0.0187473
0.00626713
0.364624
1.0961
1.83248
2.57159
3.30358
4.00944
4.66209
5.23075
5.68814
6.01712
6.21337
6.28365
6.24208
6.1063
5.89451
5.62402
5.31094
4.97023
4.61584
4.2602
3.91311
3.58126
3.26858
2.97708
2.70756
2.46018
2.23476
2.0307
1.84699
1.68206
1.53378
1.39971
1.27757
1.16548
1.06207
0.966357
0.877648
0.795385
0.719116
0.6485
0.583324
0.523505
0.46902
0.419802
0.375652
0.336251
0.3012
0.270072
0.242446
0.217927
0.196136
0.176699
0.159226
0.143307
0.128532
0.114529
0.100989
0.0876747
0.0744174
0.0611106
0.0476997
0.0341593
0.0205509
0.00687348
0.395506
1.19085
1.99703
2.81438
3.63325
4.43137
5.17452
5.82233
6.33875
6.70219
6.90893
6.9695
6.90306
6.73206
6.47833
6.16174
5.80026
5.4105
5.00831
4.6081
4.22099
3.85396
3.51052
3.19207
2.89885
2.63064
2.38705
2.1674
1.97057
1.79475
1.63732
1.49523
1.36566
1.24647
1.13621
1.03391
0.938923
0.8507
0.768776
0.692793
0.622547
0.558024
0.499307
0.446399
0.399098
0.357026
0.319711
0.286651
0.257372
0.231446
0.208469
0.188045
0.169752
0.153125
0.137682
0.122994
0.108713
0.0945861
0.0804341
0.0661526
0.0516945
0.0370451
0.0222968
0.00746065
0.423584
1.2778
2.15059
3.04604
3.95554
4.85344
5.69678
6.43247
7.01264
7.41031
7.62351
7.66832
7.57052
7.35844
7.05789
6.69115
6.27777
5.83574
5.38297
4.93637
4.50864
4.10676
3.73344
3.38915
3.07334
2.78533
2.52459
2.29042
2.08166
1.8963
1.73115
1.58234
1.44639
1.32092
1.20442
1.09605
0.995237
0.901472
0.814261
0.733212
0.658124
0.589073
0.526309
0.469939
0.419752
0.375287
0.335974
0.301227
0.270514
0.243377
0.2194
0.198176
0.179257
0.162114
0.146179
0.13095
0.116048
0.101202
0.0862307
0.0710339
0.055573
0.039848
0.023991
0.00802997
0.448268
1.3552
2.29043
3.26323
4.26732
5.27394
6.22951
7.06404
7.71352
8.14452
8.35893
8.3807
8.24414
7.9848
7.6326
7.21184
6.74326
6.24572
5.73935
5.24446
4.77574
4.3397
3.93765
3.56881
3.23161
2.92484
2.64792
2.40021
2.18066
1.98717
1.81584
1.66166
1.52037
1.38934
1.26715
1.15314
1.04691
0.948002
0.855855
0.770026
0.690281
0.616822
0.550154
0.49054
0.437735
0.391157
0.350115
0.31392
0.281976
0.25381
0.229003
0.207151
0.187797
0.170337
0.154086
0.138459
0.123045
0.107566
0.0918427
0.0757834
0.0593563
0.0425795
0.0256371
0.00858183
0.468947
1.42122
2.41352
3.46209
4.56476
5.6905
6.77317
7.72032
8.44554
8.90789
9.11667
9.10671
8.92303
8.61005
8.20157
7.72329
7.19661
6.64028
6.07691
5.53171
5.02192
4.55285
4.12355
3.73168
3.37437
3.04982
2.75761
2.49725
2.26797
2.06781
1.89199
1.73389
1.58821
1.45227
1.32484
1.20553
1.09427
0.990589
0.893847
0.803513
0.719257
0.641442
0.570965
0.508318
0.453173
0.404769
0.362269
0.324856
0.29187
0.262839
0.23735
0.21503
0.195429
0.177859
0.161472
0.145579
0.129753
0.113719
0.0973034
0.0804291
0.0630646
0.0452488
0.0272362
0.0091154
0.485023
1.47399
2.51668
3.63827
4.84322
6.09998
7.32812
8.40531
9.21354
9.70345
9.89786
9.84591
9.60569
9.23266
8.76373
8.22491
7.63781
7.01943
6.39502
5.79724
5.24682
4.74641
4.29166
3.8785
3.50242
3.16098
2.85427
2.58202
2.34394
2.13864
1.96024
1.79975
1.65058
1.51026
1.3779
1.25356
1.1376
1.02953
0.928526
0.833967
0.745304
0.663089
0.588842
0.523379
0.466195
0.41626
0.372578
0.33417
0.30031
0.270557
0.244515
0.22186
0.202204
0.184747
0.168408
0.15237
0.136221
0.119699
0.102643
0.0849981
0.0667181
0.0478627
0.028786
0.00962831
0.495941
1.51175
2.59668
3.78704
5.09726
6.49833
7.8945
9.12395
10.0232
10.5341
10.7031
10.5973
10.2899
9.85074
9.31784
8.71603
8.06714
7.38344
6.69293
6.03998
5.45008
4.92072
4.4426
4.01016
3.6167
3.25909
2.93857
2.65502
2.40886
2.20002
2.02129
1.86007
1.70813
1.56383
1.42676
1.29751
1.17718
1.06509
0.96017
0.861699
0.768691
0.681909
0.603864
0.535826
0.476934
0.425771
0.38119
0.342003
0.30741
0.277061
0.250566
0.227685
0.208163
0.191071
0.174971
0.158891
0.142495
0.125541
0.107888
0.089517
0.0703377
0.0504253
0.0302795
0.0101162
0.50123
1.53291
2.65037
3.90339
5.32055
6.88033
8.47217
9.88258
10.8815
11.4024
11.5327
11.3595
10.9727
10.4621
9.86264
9.19587
8.48522
7.73302
6.96971
6.25849
5.63137
5.07634
4.57707
4.12763
3.71824
3.34489
3.01121
2.71675
2.46287
2.25221
2.07588
1.91574
1.76153
1.61351
1.4718
1.33761
1.21325
1.09755
0.989038
0.88704
0.789712
0.698018
0.616066
0.545753
0.485535
0.433445
0.38826
0.348501
0.313284
0.282448
0.255572
0.232528
0.213337
0.196904
0.181244
0.165196
0.148615
0.131276
0.113057
0.0940125
0.0739466
0.0529369
0.0317045
0.0105725
0.500537
1.53617
2.6749
3.9822
5.50588
7.23929
9.06046
10.6894
11.7968
12.31
12.3859
12.1305
11.6502
11.0642
10.3969
9.66342
8.89325
8.06953
7.2241
6.45082
5.7905
5.21413
4.69582
4.23206
3.80822
3.4191
3.07292
2.76776
2.50598
2.29533
2.1249
1.96782
1.81137
1.65977
1.51339
1.37401
1.24603
1.12718
1.01536
0.910352
0.808701
0.711499
0.625435
0.553252
0.492153
0.439418
0.39395
0.353817
0.318035
0.286817
0.259601
0.236399
0.21774
0.202329
0.187321
0.171331
0.154616
0.136932
0.118162
0.0985123
0.077573
0.0553938
0.0330411
0.0109874
0.493656
1.52065
2.66787
4.01846
5.64517
7.56669
9.65778
11.5553
12.7795
13.2569
13.2618
12.9085
12.3171
11.6548
10.9199
10.1172
9.29314
8.39526
7.45433
6.61432
5.92749
5.33542
4.79953
4.32472
3.88801
3.48231
3.12452
2.80871
2.53797
2.32931
2.16936
2.01751
1.85816
1.70307
1.5519
1.40677
1.27573
1.15425
1.0393
0.93204
0.826059
0.722378
0.631886
0.558419
0.49697
0.443817
0.398426
0.358114
0.321754
0.290271
0.26273
0.23928
0.221364
0.207445
0.193311
0.17733
0.160531
0.142533
0.123202
0.103047
0.0812532
0.0577864
0.0342607
0.0113478
0.480549
1.48591
2.62752
4.00748
5.72962
7.85174
10.261
12.4946
13.8427
14.2406
14.1586
13.6919
12.9666
12.2315
11.4311
10.5546
9.68776
8.71387
7.65782
6.74536
6.04284
5.44212
4.88861
4.40703
3.95919
3.53485
3.16694
2.84042
2.55831
2.35375
2.21055
2.06628
1.90221
1.74384
1.58773
1.43578
1.30256
1.17905
1.06093
0.952571
0.84228
0.730602
0.635241
0.561375
0.500207
0.446741
0.401868
0.361571
0.324504
0.292923
0.265047
0.241119
0.22417
0.212374
0.199345
0.183202
0.166385
0.148107
0.128158
0.107653
0.0850373
0.0600971
0.0353231
0.0116364
0.46136
1.43209
2.55288
3.94526
5.74989
8.08091
10.8644
13.5268
15.0031
15.2538
15.0744
14.4802
13.5892
12.793
11.9315
10.9714
10.0813
9.03099
7.83072
6.83893
6.13776
5.53703
4.96294
4.48066
4.02371
3.57656
3.20125
2.86404
2.56604
2.36786
2.25011
2.11591
1.94347
1.78249
1.62137
1.46068
1.32675
1.20197
1.08013
0.9725
0.858003
0.736002
0.635201
0.562284
0.502138
0.448239
0.404469
0.36439
0.326305
0.2949
0.266665
0.241824
0.226074
0.217274
0.205589
0.188918
0.172205
0.153685
0.13298
0.112375
0.0889957
0.0622963
0.0361741
0.0118313
0.436416
1.35986
2.44394
3.82877
5.69649
8.23751
11.4582
14.6778
16.2822
16.2822
16.0074
15.2751
14.1715
13.3388
12.4237
11.3604
10.4798
9.35498
7.96723
6.88823
6.21466
5.62411
5.02132
4.54757
4.08406
3.60653
3.22881
2.88121
2.55964
2.37023
2.29022
2.16867
1.98136
1.81947
1.65348
1.4808
1.34862
1.22347
1.09654
0.992507
0.874079
0.738235
0.631307
0.561387
0.503121
0.448271
0.406446
0.366809
0.327104
0.296352
0.267745
0.241241
0.226935
0.222359
0.21225
0.194391
0.17802
0.159318
0.137578
0.117272
0.0932285
0.0643365
0.0367431
0.0119061
0.40621
1.27046
2.30173
3.65633
5.56028
8.30134
12.0261
15.9828
17.7082
17.3004
16.9575
16.0821
14.694
13.8713
12.9132
11.7093
10.8918
9.69805
8.05874
6.88412
6.27771
5.70894
5.06085
4.61027
4.14356
3.62257
3.25135
2.89435
2.53681
2.35867
2.33383
2.22743
2.01437
1.85535
1.68504
1.49492
1.36865
1.24426
1.10933
1.01346
0.891656
0.736716
0.622906
0.559058
0.503631
0.446655
0.408061
0.369132
0.326738
0.297469
0.268511
0.239141
0.22653
0.227921
0.219601
0.199437
0.183877
0.165084
0.141794
0.122427
0.0978779
0.0661427
0.0369412
0.01183
0.37138
1.16566
2.12834
3.42793
5.33324
8.24865
12.5423
17.4887
19.3185
18.2665
17.9276
16.9131
15.1284
14.3961
13.4096
11.9982
11.3293
10.0777
8.09254
6.81451
6.33365
5.79925
5.07581
4.6721
4.20673
3.62061
3.27127
2.90698
2.49424
2.3299
2.38497
2.29597
2.0397
1.89098
1.71752
1.50105
1.38759
1.26536
1.11705
1.0365
0.912297
0.730508
0.609096
0.555857
0.504297
0.442985
0.409645
0.371753
0.32487
0.298502
0.269293
0.235196
0.224524
0.234362
0.228002
0.20373
0.189852
0.171114
0.145373
0.127955
0.103144
0.0675991
0.0366601
0.0115696
0.332677
1.04763
1.92689
3.14549
5.00932
8.05254
12.967
19.2583
21.1631
19.1151
18.9268
17.7892
15.4325
14.9248
13.9293
12.196
11.8093
10.5182
8.0501
6.66366
6.39282
5.9056
5.05633
4.73776
4.27993
3.5937
3.2919
2.9242
2.42727
2.27919
2.44911
2.3792
2.05256
1.92766
1.75313
1.49602
1.40663
1.28831
1.11728
1.06315
0.938126
0.71819
0.588683
0.55262
0.505967
0.436519
0.411641
0.375211
0.320915
0.29979
0.270558
0.228946
0.220438
0.242234
0.23793
0.206736
0.19608
0.177617
0.147916
0.134023
0.109303
0.0685287
0.0357744
0.011091
0.290922
0.918861
1.70144
2.81304
4.58552
7.68409
13.24
21.3746
23.3092
19.7467
19.974
18.7449
15.5445
15.4776
14.4976
12.2549
12.3557
11.0533
7.90494
6.41154
6.47034
6.04231
4.98639
4.81402
4.37201
3.5308
3.31801
2.95316
2.32952
2.19995
2.53365
2.48362
2.04535
1.96755
1.79517
1.475
1.42763
1.31535
1.10619
1.09548
0.972004
0.697668
0.560128
0.550549
0.509768
0.426026
0.414667
0.380246
0.313927
0.301806
0.272966
0.219768
0.213602
0.252285
0.250026
0.207626
0.202791
0.184917
0.148822
0.140873
0.116734
0.068667
0.0341465
0.0103644
0.246966
0.782053
1.45673
2.43671
4.06302
7.1145
13.273
23.9465
25.8475
20.0156
21.1042
19.8332
15.3746
16.087
15.1528
12.1041
13.0023
11.7283
7.61981
6.03323
6.58751
6.22856
4.84141
4.91078
4.49537
3.41511
3.35642
3.00374
2.19236
2.08323
2.64841
2.61781
2.00659
2.01405
1.84844
1.43078
1.45345
1.34977
1.07804
1.13638
1.01774
0.66595
0.521509
0.551328
0.517201
0.409593
0.4196
0.387881
0.302452
0.305212
0.277422
0.206834
0.203101
0.265517
0.265144
0.205156
0.210362
0.193506
0.1472
0.148858
0.125943
0.0676257
0.0316371
0.00936868
0.201651
0.63994
1.19803
2.02459
3.44813
6.31863
12.9396
27.1152
28.8999
19.7132
22.3758
21.1315
14.794
16.8029
15.9502
11.6408
13.7962
12.6029
7.14327
5.49838
6.7734
6.48981
4.58502
5.04251
4.6671
3.22189
3.41693
3.08921
2.00442
1.9171
2.80634
2.79307
1.91952
2.07252
1.91977
1.35289
1.48836
1.39628
1.02444
1.18979
1.08033
0.618855
0.470491
0.557243
0.53025
0.384369
0.427691
0.399524
0.284351
0.310938
0.285144
0.18906
0.187712
0.283246
0.284421
0.197523
0.219386
0.204095
0.141774
0.158485
0.137601
0.0648462
0.0281226
0.00809799
0.15577
0.495185
0.930788
1.58637
2.75316
5.28027
12.0623
31.0614
32.63
18.5481
23.8806
22.7496
13.6218
17.699
16.9683
10.7198
14.8029
13.7547
6.40554
4.77105
7.0664
6.8595
4.1652
5.23006
4.91042
2.91585
3.51344
3.22691
1.75096
1.68603
3.02408
3.02428
1.76036
2.15103
2.0186
1.22649
1.53857
1.46144
0.933462
1.26119
1.16621
0.550673
0.404321
0.57131
0.551519
0.346261
0.440714
0.41709
0.25656
0.320287
0.297726
0.165059
0.165834
0.307176
0.309368
0.182183
0.230764
0.217696
0.130742
0.170476
0.152572
0.0595417
0.0235211
0.00656783
0.110043
0.35026
0.660346
1.13276
1.99661
3.99968
10.3973
36.0134
37.2551
16.1213
25.7566
24.8376
11.6081
18.8809
18.3149
9.14066
16.1126
15.2821
5.31372
3.80985
7.51577
7.38119
3.5096
5.50302
5.25634
2.44797
3.6655
3.43902
1.4132
1.37023
3.32276
3.33085
1.4963
2.26148
2.15771
1.03097
1.6129
1.55424
0.788618
1.35805
1.28352
0.453753
0.319862
0.59739
0.584397
0.289557
0.461151
0.443144
0.214824
0.335061
0.317201
0.133086
0.13541
0.339466
0.341972
0.155633
0.245812
0.235693
0.11163
0.185846
0.171955
0.0506266
0.0178274
0.00481998
0.0650939
0.207356
0.391686
0.674802
1.20272
2.5034
7.61709
42.2558
43.0613
11.8985
28.203
27.5953
8.415
20.4958
20.1349
6.63236
17.8474
17.3077
3.74636
2.56861
8.18292
8.11111
2.52008
5.90253
5.74551
1.75165
3.90019
3.75309
0.967621
0.944865
3.72859
3.73793
1.08308
2.42082
2.35397
0.738371
1.72358
1.68668
0.567573
1.49048
1.4424
0.318052
0.21366
0.64029
0.633261
0.206496
0.492415
0.481061
0.153365
0.357726
0.346104
0.0909856
0.093846
0.382805
0.384826
0.113148
0.266404
0.259945
0.0810957
0.205998
0.197123
0.0366339
0.0111601
0.0029241
0.021441
0.0683274
0.129187
0.223029
0.399862
0.856994
3.28928
50.1378
50.4207
5.17689
31.4986
31.2825
3.59423
22.7435
22.6182
2.83639
20.1708
19.9809
1.54747
0.99767
9.14235
9.12113
1.06655
6.48468
6.4302
0.738548
4.2544
4.20259
0.385348
0.379449
4.27352
4.27782
0.462209
2.6526
2.62922
0.311534
1.88721
1.87451
0.240753
1.67202
1.65517
0.130624
0.0820836
0.70583
0.703718
0.086778
0.539118
0.535204
0.0645144
0.39161
0.387509
0.0361415
0.0379256
0.440471
0.441279
0.0484989
0.295125
0.29288
0.0347247
0.232838
0.229753
0.0156201
0.00381859
0.000973528
)
;

boundaryField
{
    left
    {
        type            calculated;
        value           uniform 0;
    }
    right
    {
        type            calculated;
        value           uniform 0;
    }
    interface
    {
        type            calculated;
        value           nonuniform List<scalar> 
64
(
0.021441
0.0683274
0.129187
0.223029
0.399862
0.856994
3.28928
50.1378
50.4207
5.17689
31.4986
31.2825
3.59423
22.7435
22.6182
2.83639
20.1708
19.9809
1.54747
0.99767
9.14235
9.12113
1.06655
6.48468
6.4302
0.738548
4.2544
4.20259
0.385348
0.379449
4.27352
4.27782
0.462209
2.6526
2.62922
0.311534
1.88721
1.87451
0.240753
1.67202
1.65517
0.130624
0.0820836
0.70583
0.703718
0.086778
0.539118
0.535204
0.0645144
0.39161
0.387509
0.0361415
0.0379256
0.440471
0.441279
0.0484989
0.295125
0.29288
0.0347247
0.232838
0.229753
0.0156201
0.00381859
0.000973528
)
;
    }
    bottom
    {
        type            calculated;
        value           nonuniform List<scalar> 
64
(
0.0215899
0.0645243
0.106698
0.147537
0.186391
0.22254
0.255233
0.283756
0.307497
0.326017
0.339096
0.346747
0.349204
0.346888
0.340356
0.330257
0.317278
0.302107
0.285401
0.267757
0.249697
0.23166
0.213995
0.19697
0.180774
0.165534
0.151321
0.138159
0.12604
0.114924
0.104755
0.0954605
0.0869653
0.0791932
0.0720723
0.0655382
0.0595348
0.0540143
0.0489374
0.0442712
0.0399887
0.0360669
0.0324855
0.0292255
0.0262678
0.0235932
0.021181
0.0190099
0.0170578
0.0153022
0.0137204
0.0122899
0.0109886
0.00979542
0.00869046
0.00765546
0.00667421
0.00573277
0.00481964
0.00392574
0.00304426
0.00217039
0.00130085
0.000433415
)
;
    }
    defaultFaces
    {
        type            empty;
    }
}


// ************************************************************************* //
