/*--------------------------------*- C++ -*----------------------------------*\
| =========                 |                                                 |
| \\      /  F ield         | OpenFOAM: The Open Source CFD Toolbox           |
|  \\    /   O peration     | Version:  5.x                                   |
|   \\  /    A nd           | Web:      www.OpenFOAM.org                      |
|    \\/     M anipulation  |                                                 |
\*---------------------------------------------------------------------------*/
FoamFile
{
    version     2.0;
    format      ascii;
    class       volScalarField;
    location    "4.4";
    object      gradTy;
}
// * * * * * * * * * * * * * * * * * * * * * * * * * * * * * * * * * * * * * //

dimensions      [0 -1 0 1 0 0 0];

internalField   nonuniform List<scalar> 
2048
(
-20.4896
-20.3954
-20.2082
-19.9301
-19.5646
-19.1168
-18.5934
-18.0028
-17.3548
-16.6604
-15.9316
-15.1804
-14.4186
-13.6571
-12.9058
-12.1733
-11.4666
-10.7912
-10.1511
-9.54893
-8.98605
-8.46282
-7.97872
-7.53257
-7.12271
-6.74712
-6.40361
-6.08987
-5.8036
-5.54255
-5.30458
-5.08769
-4.89008
-4.71008
-4.5462
-4.39712
-4.26161
-4.1386
-4.02707
-3.92611
-3.83485
-3.7525
-3.67828
-3.61149
-3.55143
-3.49749
-3.44905
-3.40557
-3.36656
-3.33156
-3.30016
-3.27202
-3.24682
-3.22432
-3.20429
-3.18658
-3.17104
-3.15758
-3.14613
-3.13664
-3.12907
-3.1234
-3.11963
-3.11775
-20.5657
-20.4707
-20.2817
-20.0007
-19.6311
-19.1779
-18.6478
-18.0491
-17.3921
-16.6882
-15.9497
-15.189
-14.4182
-13.6487
-12.8906
-12.1524
-11.4412
-10.7626
-10.1203
-9.51702
-8.95386
-8.43104
-7.94789
-7.50309
-7.09484
-6.72103
-6.37938
-6.06751
-5.78305
-5.52372
-5.28736
-5.07195
-4.87566
-4.69686
-4.53407
-4.38596
-4.25134
-4.12913
-4.01835
-3.91808
-3.82747
-3.74573
-3.6721
-3.60585
-3.54631
-3.49285
-3.44485
-3.40178
-3.36313
-3.32846
-3.29734
-3.26944
-3.24446
-3.22212
-3.20224
-3.18463
-3.16918
-3.15578
-3.14436
-3.13489
-3.12734
-3.12169
-3.11792
-3.11603
-20.7103
-20.6138
-20.4215
-20.1352
-19.758
-19.2946
-18.7515
-18.1376
-17.4633
-16.741
-15.9837
-15.2047
-14.4169
-13.6321
-12.8608
-12.1118
-11.3923
-10.7075
-10.0614
-9.45601
-8.89244
-8.37051
-7.88927
-7.4471
-7.04199
-6.67161
-6.33352
-6.02522
-5.74423
-5.48819
-5.25487
-5.04225
-4.84849
-4.67195
-4.51119
-4.36491
-4.23195
-4.11126
-4.00188
-3.90292
-3.81354
-3.73296
-3.66042
-3.59521
-3.53665
-3.48409
-3.43694
-3.39463
-3.35668
-3.32261
-3.29204
-3.26461
-3.24001
-3.218
-3.19837
-3.18097
-3.16566
-3.15236
-3.14102
-3.1316
-3.12408
-3.11844
-3.11468
-3.1128
-20.9154
-20.8168
-20.6202
-20.3267
-19.939
-19.4611
-18.8997
-18.2637
-17.5646
-16.8156
-16.0312
-15.2258
-14.4135
-13.6068
-12.8168
-12.0526
-11.3213
-10.6281
-9.97664
-9.36868
-8.80479
-8.28439
-7.80606
-7.36781
-6.96728
-6.60188
-6.26893
-5.96575
-5.68971
-5.43834
-5.20934
-5.00065
-4.81043
-4.63707
-4.47914
-4.33542
-4.20477
-4.08619
-3.97877
-3.88163
-3.79397
-3.71502
-3.64403
-3.58028
-3.5231
-3.47182
-3.42585
-3.38463
-3.34765
-3.31445
-3.28464
-3.25786
-3.23381
-3.21225
-3.19298
-3.17585
-3.16074
-3.14759
-3.13634
-3.12698
-3.11949
-3.11387
-3.11012
-3.10824
-21.1738
-21.073
-20.8714
-20.5695
-20.1689
-19.6732
-19.0885
-18.4243
-17.693
-16.9094
-16.0898
-15.2504
-14.4066
-13.5721
-12.7585
-11.9751
-11.2292
-10.5258
-9.86801
-9.25722
-8.69338
-8.17531
-7.70102
-7.26802
-6.8735
-6.51455
-6.18821
-5.89156
-5.62182
-5.37637
-5.15282
-4.94905
-4.76323
-4.59379
-4.43937
-4.29879
-4.17099
-4.05502
-3.95001
-3.85513
-3.7696
-3.69268
-3.62362
-3.5617
-3.50625
-3.45658
-3.4121
-3.37224
-3.33647
-3.30436
-3.27549
-3.24953
-3.22616
-3.20515
-3.18632
-3.16952
-3.15465
-3.14167
-3.13053
-3.12123
-3.11378
-3.10817
-3.10443
-3.10255
-21.4792
-21.3762
-21.1695
-20.8586
-20.4438
-19.9273
-19.315
-18.6166
-17.8459
-17.0199
-16.1572
-15.2764
-14.3946
-13.5268
-12.6851
-11.8794
-11.1166
-10.4015
-9.7369
-9.12342
-8.5603
-8.0456
-7.57661
-7.15021
-6.76314
-6.41206
-6.09371
-5.80494
-5.54274
-5.30432
-5.08719
-4.88918
-4.70849
-4.54359
-4.3932
-4.25624
-4.13171
-4.01875
-3.91652
-3.82425
-3.74119
-3.66663
-3.59983
-3.54007
-3.48665
-3.43888
-3.39615
-3.35787
-3.32354
-3.29269
-3.26493
-3.23991
-3.21734
-3.19697
-3.17864
-3.16221
-3.14761
-3.1348
-3.12377
-3.11453
-3.10711
-3.10151
-3.09777
-3.09589
-21.8258
-21.721
-21.5098
-21.1901
-20.7603
-20.221
-19.5771
-18.8386
-18.0213
-17.1449
-16.2313
-15.3018
-14.3758
-13.4695
-12.596
-11.7651
-10.9836
-10.256
-9.58441
-8.96876
-8.40736
-7.8973
-7.43501
-7.01667
-6.63846
-6.29663
-5.9876
-5.70794
-5.4544
-5.22403
-5.01418
-4.82266
-4.64766
-4.48778
-4.34183
-4.20884
-4.08792
-3.97825
-3.87909
-3.78971
-3.70941
-3.63749
-3.57323
-3.51591
-3.46478
-3.41916
-3.3784
-3.34192
-3.3092
-3.27978
-3.25326
-3.2293
-3.20761
-3.18795
-3.17016
-3.15412
-3.1398
-3.12716
-3.11623
-3.10705
-3.09963
-3.09403
-3.09029
-3.0884
-22.208
-22.1021
-21.8876
-21.5603
-21.1158
-20.5524
-19.8733
-19.089
-18.2175
-17.2825
-16.3098
-15.3244
-14.3482
-13.399
-12.4903
-11.6318
-10.8303
-10.0898
-9.41148
-8.79459
-8.23621
-7.7323
-7.27826
-6.86947
-6.50153
-6.17028
-5.87181
-5.60243
-5.35862
-5.13721
-4.9354
-4.75092
-4.58207
-4.42754
-4.28633
-4.15756
-4.04047
-3.93434
-3.83846
-3.75218
-3.67485
-3.6058
-3.54433
-3.48968
-3.44109
-3.39784
-3.35925
-3.32473
-3.29377
-3.2659
-3.24074
-3.21794
-3.1972
-3.1783
-3.16108
-3.14545
-3.13139
-3.11892
-3.10807
-3.09891
-3.09149
-3.08587
-3.08211
-3.08021
-22.6203
-22.5145
-22.2988
-21.9661
-21.5084
-20.9203
-20.2029
-19.3669
-18.4332
-17.4307
-16.3904
-15.342
-14.31
-13.3137
-12.3669
-11.4792
-10.6568
-9.9032
-9.21895
-8.60209
-8.0484
-7.55238
-7.10827
-6.71056
-6.35427
-6.03486
-5.74813
-5.49011
-5.25702
-5.04541
-4.85227
-4.67531
-4.51291
-4.36395
-4.22763
-4.10325
-3.99015
-3.88769
-3.79525
-3.71222
-3.63802
-3.57204
-3.51357
-3.46181
-3.41597
-3.37527
-3.33902
-3.30661
-3.27753
-3.25133
-3.22762
-3.20605
-3.18632
-3.16821
-3.15158
-3.13635
-3.12254
-3.1102
-3.09941
-3.09025
-3.0828
-3.07715
-3.07336
-3.07144
-23.0574
-22.9534
-22.7393
-22.4046
-21.9364
-21.3244
-20.5661
-19.672
-18.6673
-17.5876
-16.4709
-15.3521
-14.2591
-13.2121
-12.225
-11.3068
-10.4631
-9.69671
-9.00754
-8.39243
-7.84543
-7.35928
-6.92686
-6.54177
-6.19845
-5.89205
-5.61816
-5.37252
-5.15109
-4.95004
-4.76614
-4.59701
-4.44122
-4.29793
-4.16657
-4.04665
-3.93763
-3.83894
-3.75001
-3.67033
-3.59939
-3.53662
-3.48133
-3.43267
-3.38977
-3.35179
-3.31801
-3.28783
-3.26073
-3.23629
-3.2141
-3.19383
-3.17517
-3.15787
-3.14182
-3.12697
-3.11339
-3.10115
-3.09037
-3.08117
-3.07366
-3.06796
-3.06413
-3.06219
-23.5139
-23.4138
-23.2052
-22.8732
-22.3987
-21.7647
-20.9634
-20.0046
-18.9189
-17.7512
-16.5487
-15.3523
-14.1933
-13.0928
-12.0638
-11.1145
-10.2493
-9.47067
-8.77796
-8.16672
-7.62876
-7.15468
-6.73581
-6.36483
-6.0357
-5.74339
-5.48332
-5.25103
-5.04214
-4.85242
-4.67821
-4.51711
-4.36795
-4.23028
-4.10385
-3.9884
-3.88349
-3.78861
-3.70325
-3.62696
-3.55933
-3.49989
-3.44795
-3.40258
-3.3628
-3.32769
-3.29651
-3.26864
-3.2436
-3.22097
-3.20037
-3.18146
-3.1639
-3.14743
-3.13194
-3.11745
-3.10403
-3.09185
-3.08104
-3.07177
-3.06417
-3.05838
-3.0545
-3.05253
-23.9844
-23.8907
-23.6925
-23.3694
-22.8948
-22.2422
-21.3964
-20.3655
-19.1872
-17.9195
-16.6211
-15.3399
-14.1108
-12.9546
-11.8828
-10.902
-10.0156
-9.22543
-8.53086
-7.92605
-7.39992
-6.94028
-6.53685
-6.1814
-5.86753
-5.59025
-5.34491
-5.12686
-4.9314
-4.75371
-4.58961
-4.43657
-4.29391
-4.1617
-4.04008
-3.92904
-3.82825
-3.73717
-3.65537
-3.58246
-3.51816
-3.46214
-3.41372
-3.37183
-3.33533
-3.30322
-3.27473
-3.24924
-3.2263
-3.20555
-3.18659
-3.16908
-3.15266
-3.13703
-3.12208
-3.10788
-3.09459
-3.0824
-3.07152
-3.06212
-3.05439
-3.0485
-3.04455
-3.04256
-24.4633
-24.3791
-24.1971
-23.8908
-23.4241
-22.7584
-21.8675
-20.7561
-19.4714
-18.0899
-16.685
-15.312
-14.0093
-12.7964
-11.6816
-10.6697
-9.76244
-8.96132
-8.2668
-7.67153
-7.16047
-6.71782
-6.33167
-5.99305
-5.69533
-5.43385
-5.20405
-5.00106
-4.81991
-4.65504
-4.50136
-4.35626
-4.2198
-4.09277
-3.97574
-3.86904
-3.77233
-3.68503
-3.60675
-3.53717
-3.47615
-3.42361
-3.37888
-3.34068
-3.30762
-3.27863
-3.25289
-3.22981
-3.20902
-3.19016
-3.17288
-3.15683
-3.14158
-3.12679
-3.11233
-3.09837
-3.08514
-3.07289
-3.06187
-3.0523
-3.0444
-3.03837
-3.03436
-3.03234
-24.9452
-24.874
-24.7148
-24.4348
-23.9864
-23.3156
-22.3802
-21.1785
-19.7704
-18.2596
-16.7371
-15.2656
-13.8869
-12.6174
-11.4601
-10.4179
-9.49029
-8.67863
-7.98621
-7.4043
-6.91209
-6.48904
-6.12196
-5.80131
-5.52035
-5.27526
-5.06169
-4.87451
-4.70863
-4.55744
-4.41447
-4.27694
-4.14619
-4.02394
-3.91123
-3.80875
-3.71612
-3.63256
-3.55773
-3.49137
-3.43351
-3.38448
-3.34365
-3.30937
-3.27991
-3.25412
-3.23118
-3.21052
-3.19186
-3.17492
-3.15935
-3.14481
-3.13079
-3.11682
-3.10279
-3.08899
-3.07575
-3.06337
-3.05216
-3.04237
-3.03424
-3.02806
-3.02397
-3.02194
-25.4246
-25.3699
-25.2411
-24.9985
-24.5815
-23.9166
-22.9391
-21.6355
-20.0828
-18.425
-16.7738
-15.1973
-13.7417
-12.4173
-11.2186
-10.1474
-9.20007
-8.37748
-7.68933
-7.12553
-6.65664
-6.25573
-5.90935
-5.60763
-5.34368
-5.11541
-4.91867
-4.74793
-4.59834
-4.4619
-4.32989
-4.19928
-4.07353
-3.9556
-3.84684
-3.7485
-3.65996
-3.58005
-3.5086
-3.4453
-3.39039
-3.34489
-3.30821
-3.27811
-3.25239
-3.22988
-3.20976
-3.19148
-3.17495
-3.15994
-3.14608
-3.13311
-3.12039
-3.10725
-3.09355
-3.07981
-3.06649
-3.05391
-3.04245
-3.03238
-3.02397
-3.01759
-3.01344
-3.01141
-25.896
-25.8618
-25.7715
-25.5787
-25.2092
-24.565
-23.5503
-22.1313
-20.4066
-18.5816
-16.7915
-15.1035
-13.5719
-12.1962
-10.9575
-9.85947
-8.89302
-8.05774
-7.37604
-6.83648
-6.39622
-6.01966
-5.69542
-5.41344
-5.16625
-4.95504
-4.77571
-4.62183
-4.48972
-4.36942
-4.24862
-4.12379
-4.00215
-3.88802
-3.78274
-3.6885
-3.60417
-3.52778
-3.45963
-3.39922
-3.34687
-3.30489
-3.27272
-3.24712
-3.22525
-3.20609
-3.18879
-3.17281
-3.15838
-3.14528
-3.13314
-3.12181
-3.1105
-3.09817
-3.08467
-3.07089
-3.0574
-3.04453
-3.03278
-3.02239
-3.01361
-3.00702
-3.00282
-3.00081
-26.3543
-26.3444
-26.3009
-26.1719
-25.8687
-25.265
-24.2219
-22.6713
-20.7378
-18.724
-16.7863
-14.9802
-13.3759
-11.9551
-10.6775
-9.55565
-8.57101
-7.71881
-7.04576
-6.53856
-6.13334
-5.78256
-5.48165
-5.22015
-4.98876
-4.79476
-4.63346
-4.49651
-4.38324
-4.28104
-4.1717
-4.05088
-3.93223
-3.82145
-3.71903
-3.62895
-3.54905
-3.47598
-3.41109
-3.35336
-3.30299
-3.26447
-3.23731
-3.21664
-3.19867
-3.18289
-3.16841
-3.15458
-3.14219
-3.13101
-3.12054
-3.11096
-3.10121
-3.0897
-3.07619
-3.06224
-3.04853
-3.03529
-3.0232
-3.01244
-3.00319
-2.99635
-2.99215
-2.99021
-26.7947
-26.8126
-26.8242
-26.7735
-26.5588
-26.021
-24.9641
-23.263
-21.0707
-18.8452
-16.7555
-14.8225
-13.1523
-11.6962
-10.3788
-9.23796
-8.23685
-7.35935
-6.6972
-6.23348
-5.87111
-5.54592
-5.26939
-5.02931
-4.81162
-4.63499
-4.49257
-4.37197
-4.27921
-4.19786
-4.10036
-3.98068
-3.86379
-3.75609
-3.65564
-3.56996
-3.49496
-3.42479
-3.36323
-3.30801
-3.25865
-3.22356
-3.20213
-3.18692
-3.17279
-3.16042
-3.14875
-3.13683
-3.12644
-3.11719
-3.10829
-3.10059
-3.09264
-3.08196
-3.06814
-3.0539
-3.03993
-3.02619
-3.01375
-3.00259
-2.99274
-2.9856
-2.98146
-2.97966
-27.2127
-27.2616
-27.3359
-27.3787
-27.277
-26.8375
-25.7898
-23.9172
-21.3952
-18.9369
-16.6977
-14.6244
-12.8998
-11.4235
-10.0615
-8.90886
-7.89486
-6.97679
-6.32811
-5.92337
-5.61351
-5.3108
-5.0598
-4.8427
-4.6348
-4.47601
-4.35386
-4.24783
-4.17765
-4.12119
-4.03608
-3.91304
-3.79666
-3.69226
-3.59233
-3.5116
-3.44232
-3.37426
-3.31628
-3.26356
-3.21366
-3.18195
-3.16734
-3.15827
-3.1477
-3.13877
-3.12997
-3.11957
-3.11116
-3.10389
-3.09635
-3.09069
-3.08492
-3.07509
-3.0605
-3.04585
-3.03164
-3.01723
-3.00446
-2.99292
-2.98223
-2.97476
-2.97079
-2.96922
-27.6044
-27.6869
-27.8307
-27.9813
-28.0198
-27.7186
-26.7151
-24.6497
-21.6955
-18.9887
-16.6149
-14.3776
-12.6173
-11.1437
-9.72341
-8.57119
-7.55179
-6.5666
-5.93497
-5.61106
-5.36584
-5.07742
-4.85374
-4.66266
-4.45762
-4.3179
-4.21852
-4.12321
-4.07825
-4.05254
-3.9808
-3.84727
-3.73048
-3.63044
-3.52862
-3.45388
-3.39174
-3.32427
-3.27049
-3.22056
-3.16762
-3.13934
-3.13313
-3.1311
-3.12342
-3.11803
-3.11226
-3.10271
-3.09633
-3.09119
-3.0846
-3.08122
-3.07819
-3.06929
-3.05319
-3.03805
-3.02373
-3.00836
-2.99537
-2.9835
-2.97163
-2.9638
-2.96017
-2.95895
-27.9666
-28.0843
-28.303
-28.5746
-28.7815
-28.6671
-27.7598
-25.4836
-21.946
-18.9882
-16.515
-14.0699
-12.304
-10.8678
-9.35982
-8.22815
-7.21825
-6.12118
-5.51269
-5.30042
-5.13532
-4.8445
-4.65175
-4.49249
-4.27836
-4.16061
-4.0884
-3.99647
-3.9803
-3.99379
-3.93718
-3.78187
-3.66467
-3.57156
-3.46362
-3.39676
-3.34415
-3.27439
-3.2261
-3.17985
-3.11988
-3.09525
-3.09977
-3.10594
-3.09984
-3.09825
-3.09586
-3.08611
-3.08196
-3.07925
-3.07287
-3.07211
-3.07262
-3.06481
-3.04606
-3.03047
-3.01631
-2.99952
-2.98649
-2.97448
-2.96089
-2.95267
-2.94963
-2.94891
-28.2968
-28.4506
-28.7474
-29.1512
-29.5545
-29.6837
-28.9472
-26.4543
-22.1066
-18.9212
-16.415
-13.6825
-11.9588
-10.6133
-8.96049
-7.88321
-6.91087
-5.62812
-5.05434
-4.9967
-4.93196
-4.60833
-4.45394
-4.33718
-4.0937
-4.00389
-3.9666
-3.86487
-3.88255
-3.9472
-3.90897
-3.71412
-3.59841
-3.51723
-3.39581
-3.34016
-3.30094
-3.22374
-3.18335
-3.14275
-3.06936
-3.04906
-3.06761
-3.08354
-3.07667
-3.07941
-3.08118
-3.06944
-3.06799
-3.06831
-3.06087
-3.0632
-3.06842
-3.06201
-3.03878
-3.02299
-3.00955
-2.99053
-2.97784
-2.96604
-2.94987
-2.94131
-2.93918
-2.9392
-28.5933
-28.7827
-29.1591
-29.7027
-30.3286
-30.7651
-30.3038
-27.6151
-22.1152
-18.7718
-16.347
-13.1854
-11.5811
-10.408
-8.5065
-7.54
-6.6554
-5.06765
-4.55108
-4.70695
-4.76977
-4.36132
-4.26002
-4.20442
-3.89787
-3.84738
-3.8581
-3.72405
-3.78317
-3.91554
-3.9016
-3.63946
-3.53068
-3.47025
-3.32271
-3.28394
-3.26433
-3.17068
-3.14246
-3.11133
-3.01437
-2.99998
-3.03715
-3.06493
-3.05329
-3.0615
-3.06879
-3.0522
-3.05439
-3.0588
-3.04815
-3.05429
-3.06585
-3.06141
-3.03088
-3.01553
-3.00377
-2.98111
-2.96944
-2.95848
-2.93835
-2.9296
-2.92888
-2.92987
-28.8549
-29.0788
-29.5336
-30.2208
-31.091
-31.9032
-31.8575
-29.0475
-21.877
-18.5233
-16.3656
-12.5317
-11.1701
-10.2945
-7.96534
-7.20223
-6.49117
-4.40886
-3.99243
-4.44035
-4.66852
-4.09
-4.06929
-4.10608
-3.68127
-3.69062
-3.77079
-3.56723
-3.6797
-3.90204
-3.92294
-3.55051
-3.46033
-3.43522
-3.24032
-3.22792
-3.23774
-3.11241
-3.10365
-3.08877
-2.95228
-2.94707
-3.00904
-3.05161
-3.02863
-3.04444
-3.05965
-3.03352
-3.0411
-3.05137
-3.03402
-3.04512
-3.06519
-3.06379
-3.02156
-3.00793
-2.99944
-2.9708
-2.96129
-2.95225
-2.92599
-2.91744
-2.91877
-2.92103
-29.0815
-29.3376
-29.8673
-30.6972
-31.8266
-33.0825
-33.6345
-30.8743
-21.2502
-18.1598
-16.5578
-11.6475
-10.7257
-10.3377
-7.28397
-6.87361
-6.47725
-3.60429
-3.36718
-4.20829
-4.65607
-3.77224
-3.88082
-4.06024
-3.42869
-3.53321
-3.71689
-3.38415
-3.56918
-3.91027
-3.98452
-3.43593
-3.38615
-3.41939
-3.14238
-3.17196
-3.22639
-3.04447
-3.06712
-3.07984
-2.87911
-2.88936
-2.98415
-3.04569
-3.00095
-3.02814
-3.05518
-3.01209
-3.02805
-3.04712
-3.01749
-3.03535
-3.06677
-3.07029
-3.0096
-3.00008
-2.99736
-2.95889
-2.9534
-2.94804
-2.91226
-2.90472
-2.90892
-2.91277
-29.2735
-29.5587
-30.1574
-31.124
-32.5182
-34.2788
-35.6532
-33.2787
-20.0257
-17.6687
-17.0574
-10.4201
-10.2492
-10.6336
-6.37948
-6.5579
-6.70063
-2.58238
-2.66537
-4.02398
-4.77163
-3.37347
-3.69371
-4.09391
-3.1167
-3.37498
-3.71464
-3.15946
-3.44845
-3.94377
-4.10302
-3.27862
-3.30718
-3.43385
-3.01935
-3.116
-3.23808
-2.95988
-3.03309
-3.09166
-2.78888
-2.82597
-2.96347
-3.05015
-2.96755
-3.01251
-3.05755
-2.9859
-3.01522
-3.04764
-2.99708
-3.02466
-3.07091
-3.0826
-2.99323
-2.99186
-2.99874
-2.94429
-2.9458
-2.94686
-2.89637
-2.89138
-2.89946
-2.90521
-29.4319
-29.7425
-30.4024
-31.4945
-33.1476
-35.4578
-37.9147
-36.531
-17.901
-17.0451
-18.0617
-8.68008
-9.74434
-11.3224
-5.12664
-6.25901
-7.28697
-1.23714
-1.88166
-3.90131
-5.07004
-2.84183
-3.50769
-4.24658
-2.7102
-3.21643
-3.79072
-2.87065
-3.31479
-4.00536
-4.30248
-3.05352
-3.22294
-3.49497
-2.85691
-3.06017
-3.28423
-2.84821
-3.00178
-3.13454
-2.67277
-2.75645
-2.9481
-3.0692
-2.92441
-2.99752
-3.06999
-2.95197
-3.00262
-3.05536
-2.97068
-3.01274
-3.07787
-3.10318
-2.96983
-2.98322
-3.00537
-2.92538
-2.93851
-2.95019
-2.87712
-2.87742
-2.89055
-2.89845
-29.5582
-29.89
-30.6019
-31.8037
-33.6969
-36.5746
-40.3883
-41.0228
-14.446
-16.2972
-19.8539
-6.17965
-9.21983
-12.6032
-3.34197
-5.98149
-8.41424
0.585534
-1.02096
-3.85242
-5.62757
-2.10181
-3.32383
-4.57472
-2.15795
-3.05923
-3.98307
-2.48518
-3.16707
-4.096
-4.61708
-2.72471
-3.13406
-3.62621
-2.63419
-3.00507
-3.38119
-2.69421
-2.97349
-3.22312
-2.51803
-2.68121
-2.93905
-3.10869
-2.8657
-2.9832
-3.09711
-2.90599
-2.99038
-3.07371
-2.93525
-2.99946
-3.08771
-3.13554
-2.93568
-2.97422
-3.01986
-2.89982
-2.93163
-2.96014
-2.8528
-2.86301
-2.88241
-2.89262
-29.6545
-30.003
-30.7564
-32.0484
-34.1499
-37.5748
-42.991
-47.3118
-9.05954
-15.4552
-22.8292
-2.56424
-8.69245
-14.7539
-0.763847
-5.73121
-10.3296
3.10554
-0.106707
-3.88356
-6.54922
-1.04654
-3.14576
-5.15714
-1.38687
-2.90713
-4.34437
-1.95691
-3.00747
-4.21289
-5.09479
-2.24172
-3.04287
-3.86041
-2.32141
-2.95195
-3.55177
-2.4762
-2.94861
-3.37775
-2.30646
-2.60221
-2.9369
-3.17671
-2.78317
-2.96976
-3.14539
-2.84186
-2.97875
-3.10751
-2.88653
-2.98498
-3.10012
-3.18465
-2.88556
-2.96509
-3.04585
-2.86427
-2.92529
-2.97961
-2.82093
-2.84856
-2.87533
-2.88781
-29.7231
-30.0837
-30.8678
-32.2279
-34.494
-38.3983
-45.5586
-56.1788
-0.916685
-14.5822
-27.526
2.66147
-8.19181
-18.1542
2.97154
-5.51657
-13.3696
6.63085
0.80726
-3.98865
-7.97816
0.471798
-2.98121
-6.10154
-0.295114
-2.76711
-4.94619
-1.2214
-2.84417
-4.34683
-5.802
-1.53504
-2.95445
-4.24229
-1.87699
-2.9032
-3.8272
-2.16406
-2.92776
-3.62622
-2.01257
-2.52393
-2.9413
-3.28424
-2.66543
-2.95768
-3.22371
-2.75107
-2.9682
-3.1633
-2.81858
-2.97003
-3.11412
-3.25736
-2.81231
-2.95631
-3.08832
-2.81405
-2.91971
-3.01254
-2.778
-2.83482
-2.86957
-2.88407
-29.7663
-30.1347
-30.9386
-32.3435
-34.7221
-38.9861
-47.8082
-68.6963
11.0955
-13.7889
-34.6609
10.1741
-7.76672
-23.3114
8.35854
-5.35019
-17.9841
11.5848
1.62066
-4.13983
-10.1074
2.6532
-2.84401
-7.55191
1.25623
-2.65099
-5.88364
-0.190322
-2.69492
-4.47842
-6.82913
-0.510763
-2.87779
-4.83143
-1.24418
-2.8628
-4.2492
-1.71688
-2.91185
-4.00559
-1.60132
-2.45468
-2.9502
-3.44609
-2.49704
-2.94775
-3.34391
-2.62201
-2.95948
-3.24978
-2.72322
-2.95617
-3.12765
-3.36299
-2.70618
-2.94866
-3.15387
-2.74278
-2.91519
-3.06414
-2.7191
-2.82304
-2.86537
-2.88137
-29.7867
-30.1589
-30.9724
-32.3991
-34.8338
-39.2919
-49.2907
-86.3114
28.4522
-13.2519
-45.1684
20.878
-7.49336
-30.8908
16.0542
-5.25119
-24.7636
18.5387
2.16591
-4.27449
-13.1939
5.76292
-2.75669
-9.69681
3.45267
-2.57746
-7.28065
1.25535
-2.59193
-4.57315
-8.29742
0.955792
-2.82735
-5.70548
-0.347106
-2.83703
-4.87245
-1.08021
-2.90224
-4.56447
-1.02535
-2.40819
-2.95876
-3.68182
-2.25746
-2.94123
-3.52149
-2.43913
-2.9537
-3.37821
-2.58937
-2.94623
-3.13701
-3.51397
-2.5542
-2.94334
-3.25104
-2.64185
-2.91209
-3.14113
-2.63754
-2.81511
-2.86279
-2.87955
)
;

boundaryField
{
    left
    {
        type            calculated;
        value           nonuniform List<scalar> 
32
(
-20.4896
-20.5657
-20.7103
-20.9154
-21.1738
-21.4792
-21.8258
-22.208
-22.6203
-23.0574
-23.5139
-23.9844
-24.4633
-24.9452
-25.4246
-25.896
-26.3543
-26.7947
-27.2127
-27.6044
-27.9666
-28.2968
-28.5933
-28.8549
-29.0815
-29.2735
-29.4319
-29.5582
-29.6545
-29.7231
-29.7663
-29.7867
)
;
    }
    right
    {
        type            calculated;
        value           nonuniform List<scalar> 
32
(
-3.11775
-3.11603
-3.1128
-3.10824
-3.10255
-3.09589
-3.0884
-3.08021
-3.07144
-3.06219
-3.05253
-3.04256
-3.03234
-3.02194
-3.01141
-3.00081
-2.99021
-2.97966
-2.96922
-2.95895
-2.94891
-2.9392
-2.92987
-2.92103
-2.91277
-2.90521
-2.89845
-2.89262
-2.88781
-2.88407
-2.88137
-2.87955
)
;
    }
    interface
    {
        type            calculated;
        value           nonuniform List<scalar> 
64
(
-29.7916
-30.1647
-30.9804
-32.4124
-34.861
-39.3696
-49.7719
-96.6003
38.6763
-13.0744
-51.397
27.1565
-7.40613
-35.38
20.5727
-5.22142
-28.7781
22.5973
2.34561
-4.32724
-15.013
7.58753
-2.72895
-10.9695
4.73858
-2.55418
-8.1115
2.09885
-2.5571
-4.60586
-9.15917
1.81735
-2.81089
-6.22467
0.178306
-2.82876
-5.24211
-0.706767
-2.89921
-4.89566
-0.6894
-2.39276
-2.96214
-3.82095
-2.11695
-2.93901
-3.62681
-2.33201
-2.95171
-3.45451
-2.51124
-2.94269
-3.14007
-3.60256
-2.46489
-2.94144
-3.30873
-2.58273
-2.91096
-3.18691
-2.59013
-2.8124
-2.8619
-2.87884
)
;
    }
    bottom
    {
        type            calculated;
        value           nonuniform List<scalar> 
64
(
-20.4697
-20.3758
-20.189
-19.9117
-19.5473
-19.1009
-18.5793
-17.9907
-17.345
-16.6532
-15.9269
-15.1782
-14.4186
-13.6592
-12.9098
-12.1787
-11.4732
-10.7987
-10.1591
-9.55722
-8.99442
-8.47109
-7.98675
-7.54026
-7.12998
-6.75393
-6.40994
-6.09572
-5.80898
-5.54748
-5.30908
-5.09182
-4.89385
-4.71354
-4.54938
-4.40004
-4.2643
-4.14107
-4.02935
-3.92821
-3.83678
-3.75426
-3.6799
-3.61296
-3.55277
-3.4987
-3.45015
-3.40657
-3.36746
-3.33237
-3.3009
-3.27269
-3.24744
-3.22489
-3.20483
-3.18709
-3.17153
-3.15806
-3.1466
-3.13709
-3.12952
-3.12385
-3.12008
-3.11819
)
;
    }
    defaultFaces
    {
        type            empty;
    }
}


// ************************************************************************* //
