/*--------------------------------*- C++ -*----------------------------------*\
| =========                 |                                                 |
| \\      /  F ield         | OpenFOAM: The Open Source CFD Toolbox           |
|  \\    /   O peration     | Version:  5.x                                   |
|   \\  /    A nd           | Web:      www.OpenFOAM.org                      |
|    \\/     M anipulation  |                                                 |
\*---------------------------------------------------------------------------*/
FoamFile
{
    version     2.0;
    format      ascii;
    class       volScalarField;
    location    "4.4";
    object      T;
}
// * * * * * * * * * * * * * * * * * * * * * * * * * * * * * * * * * * * * * //

dimensions      [0 0 0 1 0 0 0];

internalField   nonuniform List<scalar> 
2048
(
9.85294
9.85361
9.85496
9.85695
9.85957
9.86277
9.86652
9.87075
9.87539
9.88036
9.88558
9.89096
9.89641
9.90187
9.90725
9.9125
9.91757
9.92242
9.92701
9.93134
9.93538
9.93914
9.94262
9.94583
9.94878
9.95148
9.95395
9.95621
9.95827
9.96015
9.96186
9.96342
9.96484
9.96614
9.96732
9.96839
9.96936
9.97025
9.97105
9.97178
9.97244
9.97303
9.97356
9.97404
9.97448
9.97486
9.97521
9.97553
9.97581
9.97606
9.97629
9.97649
9.97667
9.97683
9.97698
9.9771
9.97721
9.97731
9.97739
9.97746
9.97752
9.97756
9.97758
9.9776
9.56469
9.56669
9.57067
9.57659
9.58436
9.59388
9.605
9.61756
9.63134
9.64611
9.6616
9.67757
9.69377
9.70996
9.72593
9.74149
9.75651
9.77086
9.78446
9.79725
9.80921
9.82032
9.8306
9.84007
9.84877
9.85675
9.86404
9.8707
9.87678
9.88232
9.88737
9.89197
9.89617
9.89999
9.90347
9.90663
9.90951
9.91212
9.91449
9.91663
9.91857
9.92031
9.92189
9.92331
9.92458
9.92573
9.92675
9.92768
9.92851
9.92925
9.92991
9.93051
9.93105
9.93152
9.93195
9.93232
9.93265
9.93294
9.93318
9.93339
9.93355
9.93367
9.93375
9.93379
9.28754
9.29083
9.29737
9.30708
9.31986
9.33552
9.35384
9.37453
9.39723
9.42154
9.44706
9.47335
9.5
9.52661
9.55283
9.57838
9.603
9.6265
9.64875
9.66966
9.68919
9.70732
9.72409
9.73953
9.7537
9.76668
9.77854
9.78938
9.79926
9.80827
9.81648
9.82396
9.83078
9.83699
9.84265
9.8478
9.85247
9.85672
9.86057
9.86405
9.8672
9.87004
9.8726
9.8749
9.87697
9.87883
9.8805
9.882
9.88334
9.88455
9.88563
9.8866
9.88747
9.88824
9.88893
9.88954
9.89008
9.89055
9.89094
9.89127
9.89153
9.89173
9.89186
9.89192
9.02024
9.02478
9.03381
9.04725
9.06493
9.08663
9.11203
9.14073
9.17223
9.20598
9.24138
9.27782
9.31473
9.35154
9.38778
9.42304
9.45697
9.48932
9.51991
9.54862
9.57539
9.60022
9.62316
9.64426
9.66361
9.68132
9.6975
9.71227
9.72574
9.73801
9.7492
9.75939
9.76868
9.77715
9.78485
9.79186
9.79824
9.80402
9.80926
9.81401
9.8183
9.82216
9.82565
9.82878
9.83159
9.83412
9.83639
9.83842
9.84025
9.84189
9.84336
9.84468
9.84586
9.84692
9.84786
9.84869
9.84942
9.85006
9.8506
9.85105
9.85141
9.85168
9.85186
9.85194
8.76176
8.76752
8.779
8.79609
8.81862
8.84629
8.87872
8.91539
8.95565
8.99879
9.04403
9.09056
9.13762
9.1845
9.23058
9.27533
9.31834
9.35926
9.39789
9.43409
9.46779
9.49901
9.5278
9.55426
9.5785
9.60067
9.62091
9.63937
9.65619
9.67152
9.68549
9.69823
9.70983
9.7204
9.73003
9.73879
9.74675
9.75398
9.76053
9.76645
9.77181
9.77663
9.78098
9.78488
9.78839
9.79154
9.79436
9.7969
9.79917
9.80121
9.80304
9.80469
9.80616
9.80748
9.80865
9.8097
9.81061
9.81141
9.81209
9.81265
9.8131
9.81344
9.81366
9.81378
8.51125
8.51821
8.53209
8.55278
8.58009
8.61371
8.65316
8.69782
8.74689
8.79946
8.85456
8.91118
8.96836
9.02523
9.08102
9.13511
9.18697
9.23623
9.28263
9.32602
9.36635
9.40364
9.43798
9.46949
9.49833
9.52467
9.5487
9.5706
9.59056
9.60873
9.6253
9.64039
9.65415
9.66669
9.67811
9.6885
9.69795
9.70652
9.71429
9.72132
9.72766
9.73338
9.73852
9.74314
9.74729
9.75101
9.75435
9.75734
9.76003
9.76244
9.76461
9.76655
9.76829
9.76985
9.77125
9.77249
9.77358
9.77452
9.77533
9.77601
9.77654
9.77695
9.77722
9.77735
8.26802
8.27615
8.29238
8.31662
8.34867
8.38822
8.43472
8.48743
8.5454
8.60752
8.67258
8.73935
8.80667
8.8735
8.93892
9.00219
9.06273
9.12009
9.174
9.2243
9.27095
9.314
9.35358
9.38984
9.42298
9.45323
9.48079
9.50588
9.52874
9.54955
9.56852
9.5858
9.60156
9.61593
9.62901
9.64092
9.65175
9.66157
9.67047
9.67852
9.68579
9.69233
9.69821
9.70349
9.70822
9.71247
9.71628
9.71969
9.72276
9.72551
9.72798
9.7302
9.73219
9.73397
9.73557
9.73699
9.73824
9.73934
9.74027
9.74104
9.74167
9.74213
9.74244
9.7426
8.03149
8.04076
8.05928
8.087
8.12376
8.16922
8.22282
8.2837
8.35073
8.42256
8.49773
8.57477
8.6523
8.72908
8.80407
8.87642
8.94546
9.01071
9.07187
9.1288
9.18147
9.22997
9.27448
9.31519
9.35235
9.38621
9.41704
9.44509
9.47062
9.49386
9.51504
9.53435
9.55195
9.56801
9.58264
9.59596
9.60806
9.61905
9.629
9.63799
9.6461
9.6534
9.65996
9.66584
9.67111
9.67584
9.68007
9.68387
9.68727
9.69033
9.69308
9.69555
9.69777
9.69976
9.70155
9.70314
9.70455
9.70577
9.70682
9.7077
9.7084
9.70892
9.70927
9.70945
7.80122
7.81157
7.83231
7.86343
7.90483
7.95621
8.01698
8.08617
8.16245
8.24421
8.3297
8.41718
8.50501
8.59178
8.6763
8.75761
8.83499
8.90792
8.97609
9.03936
9.09775
9.1514
9.20052
9.24538
9.28626
9.32347
9.35731
9.38807
9.41606
9.44153
9.46474
9.4859
9.50521
9.52283
9.53888
9.5535
9.56679
9.57885
9.58977
9.59963
9.60852
9.61651
9.62369
9.63011
9.63587
9.64103
9.64565
9.64979
9.65351
9.65684
9.65984
9.66254
9.66497
9.66715
9.66911
9.67086
9.67241
9.67376
9.67492
9.67589
9.67667
9.67725
9.67764
9.67784
7.57682
7.58822
7.61108
7.64548
7.69144
7.74872
7.81673
7.89441
7.98019
8.07216
8.16823
8.26633
8.36459
8.4614
8.55542
8.6456
8.73117
8.81157
8.88649
8.95581
9.01962
9.0781
9.13153
9.18024
9.22456
9.26485
9.30145
9.33469
9.3649
9.39241
9.41747
9.44034
9.46121
9.48026
9.49763
9.51345
9.52783
9.54088
9.55269
9.56335
9.57295
9.58158
9.58931
9.59623
9.60243
9.60797
9.61294
9.61739
9.62138
9.62496
9.62819
9.63109
9.63371
9.63607
9.63819
9.64008
9.64177
9.64324
9.64451
9.64557
9.64642
9.64706
9.64748
9.6477
7.35803
7.37039
7.39525
7.4328
7.4832
7.54634
7.62168
7.70804
7.80362
7.90613
8.01307
8.12203
8.23086
8.33775
8.44124
8.5402
8.63379
8.72146
8.80287
8.87797
8.94688
9.00987
9.06731
9.11958
9.16706
9.21017
9.24927
9.28476
9.317
9.34634
9.37309
9.39751
9.41981
9.44018
9.45877
9.47569
9.49108
9.50503
9.51766
9.52906
9.53931
9.54851
9.55675
9.56412
9.5707
9.57659
9.58186
9.58658
9.59081
9.59462
9.59805
9.60114
9.60392
9.60644
9.60871
9.61074
9.61255
9.61414
9.61551
9.61665
9.61757
9.61827
9.61873
9.61897
7.14463
7.15787
7.18456
7.22507
7.27975
7.34869
7.43142
7.52671
7.63244
7.74585
7.86401
7.98409
8.10364
8.22067
8.33359
8.44123
8.54269
8.63741
8.72506
8.80563
8.87932
8.94652
9.00766
9.06319
9.11357
9.15923
9.20061
9.23813
9.27219
9.30318
9.33145
9.35728
9.38089
9.40248
9.42217
9.44011
9.45642
9.47122
9.48459
9.49666
9.50751
9.51723
9.52592
9.53367
9.5406
9.54679
9.55233
9.55729
9.56174
9.56574
9.56935
9.5726
9.57554
9.5782
9.58061
9.58277
9.5847
9.5864
9.58786
9.58909
9.59008
9.59083
9.59133
9.59158
6.93647
6.95048
6.97882
7.02206
7.0808
7.15541
7.24561
7.35008
7.46636
7.59113
7.72088
7.85235
7.98277
8.10998
8.2323
8.3485
8.45767
8.55922
8.65285
8.73858
8.81674
8.88782
8.95235
9.01087
9.06388
9.11186
9.15528
9.19461
9.23029
9.26275
9.29238
9.3195
9.34431
9.36701
9.38773
9.40661
9.42376
9.43932
9.45339
9.46607
9.47745
9.48764
9.49673
9.50483
9.51206
9.51851
9.52428
9.52945
9.53409
9.53826
9.54202
9.54542
9.5485
9.55129
9.55382
9.5561
9.55815
9.55995
9.56151
9.56282
9.56388
9.56467
9.56521
9.56547
6.73346
6.74811
6.77787
6.82354
6.88606
6.96618
7.06389
7.17785
7.30515
7.44177
7.58352
7.72667
7.86811
8.00551
8.13717
8.26181
8.37852
8.4867
8.58603
8.67661
8.7589
8.83354
8.90117
8.9624
9.01779
9.06785
9.1131
9.15403
9.19114
9.2249
9.25575
9.28403
9.30994
9.33366
9.35532
9.37506
9.39299
9.40925
9.42395
9.43719
9.44906
9.45966
9.46911
9.47751
9.48499
9.49167
9.49764
9.50299
9.50779
9.51211
9.516
9.51953
9.52272
9.52563
9.52828
9.53068
9.53283
9.53474
9.53639
9.53778
9.5389
9.53975
9.54031
9.5406
6.53554
6.55069
6.5816
6.62934
6.69529
6.78069
6.88592
7.00969
7.14858
7.29762
7.45182
7.60692
7.7595
7.9071
8.04802
8.18097
8.30505
8.41965
8.52441
8.61949
8.70557
8.78346
8.8539
8.91757
8.9751
9.02702
9.07388
9.11622
9.15457
9.18947
9.2214
9.25072
9.27764
9.30231
9.32484
9.34537
9.36401
9.38092
9.39619
9.40993
9.42225
9.43322
9.44297
9.45162
9.45932
9.46619
9.47233
9.47784
9.48278
9.48722
9.49123
9.49486
9.49816
9.50118
9.50394
9.50644
9.5087
9.5107
9.51244
9.51391
9.5151
9.51599
9.51659
9.51689
6.34269
6.35818
6.38993
6.43933
6.50827
6.59862
6.71135
6.84532
6.99647
7.15855
7.32566
7.49302
7.65683
7.81458
7.96466
8.10576
8.23704
8.35786
8.46777
8.56702
8.65652
8.73733
8.81029
8.87616
8.93561
8.98918
9.03746
9.08101
9.12043
9.15629
9.18918
9.21946
9.2473
9.27284
9.29617
9.31742
9.33672
9.35421
9.37
9.38421
9.39693
9.40824
9.41824
9.42711
9.43499
9.44201
9.44829
9.45392
9.45898
9.46353
9.46764
9.47136
9.47475
9.47786
9.48072
9.48333
9.48569
9.48779
9.48961
9.49116
9.49241
9.49336
9.49399
9.4943
6.15492
6.17058
6.20282
6.25341
6.3248
6.41968
6.53982
6.68443
6.84865
7.02448
7.20497
7.38487
7.55995
7.72777
7.88689
8.03598
8.17426
8.30114
8.41592
8.51894
8.6115
8.69493
8.77013
8.83796
8.89912
8.95415
9.00365
9.04825
9.08855
9.12522
9.15893
9.19009
9.2188
9.24514
9.26922
9.29113
9.31102
9.32905
9.34532
9.35995
9.37304
9.38463
9.39485
9.40388
9.41191
9.41906
9.42545
9.43119
9.43634
9.44098
9.44517
9.44897
9.45244
9.45563
9.45859
9.4613
9.46375
9.46594
9.46785
9.46947
9.47079
9.47178
9.47245
9.47278
5.97227
5.98791
6.02028
6.0715
6.14472
6.24356
6.37095
6.5267
6.70499
6.89535
7.08968
7.28241
7.46876
7.64648
7.81451
7.97138
8.1165
8.2493
8.36867
8.47505
8.57026
8.656
8.7332
8.80275
8.86545
8.92176
8.9723
9.01778
9.05879
9.0961
9.13052
9.1625
9.19201
9.2191
9.24388
9.2664
9.28682
9.30534
9.32204
9.33707
9.35049
9.36234
9.37273
9.38188
9.39002
9.39726
9.40375
9.40957
9.4148
9.41951
9.42377
9.42762
9.43115
9.43443
9.43748
9.44028
9.44283
9.44511
9.44711
9.44881
9.45019
9.45123
9.45192
9.45226
5.79478
5.81021
5.8423
5.89358
5.96788
6.06999
6.20434
6.3718
6.56544
6.77116
6.97972
7.18559
7.38311
7.5705
7.74732
7.91174
8.06349
8.20215
8.32584
8.4351
8.53253
8.62034
8.69927
8.77032
8.83441
8.89182
8.94324
8.98946
9.03101
9.06877
9.1038
9.13657
9.16685
9.19463
9.22007
9.24313
9.26403
9.283
9.3001
9.31548
9.32923
9.34129
9.3518
9.36104
9.36925
9.37657
9.38312
9.38902
9.39431
9.39907
9.40338
9.40728
9.41086
9.4142
9.41734
9.42024
9.42288
9.42526
9.42734
9.42911
9.43056
9.43165
9.43236
9.43272
5.62251
5.63752
5.66894
5.71963
5.79418
5.89869
6.03954
6.21934
6.43
6.65192
6.87502
7.09438
7.30289
7.49959
7.68513
7.85681
8.01496
8.15955
8.28727
8.39886
8.49806
8.5877
8.66812
8.74047
8.80584
8.86419
8.91631
8.96316
9.00507
9.04311
9.07863
9.11219
9.1432
9.17163
9.19769
9.22125
9.24256
9.26195
9.27941
9.29511
9.30917
9.32143
9.33201
9.34128
9.34955
9.35691
9.36351
9.36947
9.37481
9.37961
9.38396
9.38789
9.3915
9.3949
9.39813
9.40113
9.40386
9.40633
9.40849
9.41033
9.41185
9.41299
9.41373
9.41409
5.4555
5.46991
5.50025
5.54969
5.62354
5.72938
5.87607
6.06889
6.29878
6.53773
6.77546
7.00881
7.22797
7.43347
7.62775
7.80633
7.9706
8.12137
8.25282
8.36608
8.46654
8.55789
8.63957
8.71298
8.77959
8.83872
8.89136
8.93876
8.98086
9.01895
9.05486
9.08926
9.12098
9.15
9.17668
9.20067
9.22233
9.24213
9.25989
9.27588
9.29028
9.30269
9.31328
9.32254
9.33085
9.33823
9.34486
9.35087
9.35625
9.36107
9.36546
9.3694
9.37302
9.37647
9.37981
9.38289
9.38571
9.38828
9.39051
9.39243
9.39403
9.39521
9.39597
9.39634
5.2938
5.30743
5.33629
5.38381
5.45594
5.56182
5.71336
5.91989
6.17205
6.42871
6.68086
6.92894
7.15821
7.3718
7.57505
7.76004
7.93006
8.08754
8.22241
8.33651
8.43766
8.53072
8.61342
8.68764
8.75553
8.81526
8.86823
8.91616
8.95827
8.99615
9.03234
9.06772
9.10011
9.12964
9.15697
9.18131
9.20324
9.22345
9.24148
9.25772
9.27249
9.28504
9.29556
9.30476
9.31311
9.32049
9.32711
9.33319
9.33858
9.34341
9.34784
9.35178
9.35538
9.35887
9.36233
9.3655
9.3684
9.37107
9.37338
9.37536
9.37704
9.37828
9.37905
9.37943
5.13745
5.15014
5.17715
5.22207
5.29141
5.39583
5.55082
5.77164
6.05029
6.32502
6.59092
6.85495
7.09349
7.31413
7.52697
7.71767
7.89288
8.05804
8.19595
8.30988
8.41107
8.50605
8.58948
8.66421
8.73355
8.79369
8.84676
8.8953
8.9372
8.97457
9.01091
9.0475
9.08052
9.11045
9.1385
9.16311
9.18522
9.20588
9.2241
9.24055
9.25577
9.26841
9.27879
9.28788
9.29626
9.30362
9.31022
9.31637
9.32176
9.32658
9.33105
9.33497
9.33853
9.34205
9.34565
9.34891
9.35188
9.35466
9.35704
9.35909
9.36086
9.36215
9.36293
9.3633
4.98646
4.99807
5.02289
5.06458
5.13001
5.23124
5.38778
5.62319
5.93431
6.2269
6.50514
6.78713
7.03367
7.2599
7.48355
7.67895
7.85849
8.03299
8.17342
8.28588
8.38637
8.48381
8.5676
8.64243
8.7136
8.77389
8.82675
8.87611
8.91759
8.95406
8.9904
9.02859
9.06215
9.09233
9.12124
9.146
9.16815
9.18936
9.20769
9.22427
9.24008
9.25278
9.26291
9.27182
9.28028
9.28758
9.29412
9.30038
9.30574
9.31053
9.31507
9.31894
9.32242
9.32596
9.32974
9.33309
9.33611
9.33902
9.34146
9.34356
9.34546
9.34678
9.34757
9.34793
4.84086
4.85126
4.8736
4.91147
4.9719
5.06801
5.22354
5.47323
5.82536
6.13458
6.4227
6.72604
6.97862
7.20831
7.44502
7.6436
7.82614
8.01264
8.15484
8.2642
8.36308
8.46398
8.54763
8.62199
8.69568
8.75574
8.80799
8.85861
8.89937
8.93446
8.97059
9.011
9.04494
9.07514
9.10518
9.12992
9.15193
9.17388
9.19219
9.20879
9.22541
9.23811
9.24786
9.25651
9.26513
9.27232
9.27877
9.28518
9.29049
9.29521
9.29986
9.30367
9.30702
9.31056
9.31459
9.31799
9.32105
9.32412
9.3266
9.32874
9.33079
9.33216
9.33293
9.33327
4.70062
4.70971
4.72933
4.76288
4.81724
4.90618
5.05737
5.31993
5.72533
6.04834
6.34241
6.67253
6.92819
7.15829
7.41186
7.61135
7.79483
7.99746
8.14025
8.24449
8.34061
8.44669
8.52943
8.60251
8.67987
8.73914
8.79021
8.84283
8.88249
8.91562
8.95124
8.9948
9.02885
9.05872
9.09034
9.11482
9.13643
9.15943
9.17754
9.194
9.21177
9.22437
9.23357
9.24188
9.25078
9.25781
9.26409
9.27077
9.27597
9.28058
9.28541
9.28911
9.29227
9.29578
9.30016
9.30359
9.30665
9.30993
9.31242
9.31458
9.31683
9.31823
9.31897
9.3193
4.56571
4.57343
4.59015
4.61895
4.66629
4.74592
4.88862
5.1607
5.63695
5.96843
6.26244
6.62794
6.88222
7.1084
7.38494
7.58192
7.7632
7.98824
8.12971
8.22636
8.31824
8.43222
8.51289
8.58351
8.66635
8.72399
8.77307
8.82888
8.86694
8.89739
8.93204
8.98016
9.01385
9.04286
9.07678
9.10063
9.1215
9.14605
9.16368
9.17974
9.19919
9.21154
9.22
9.22784
9.23723
9.244
9.25003
9.25711
9.26215
9.26656
9.27169
9.27523
9.27815
9.28158
9.28645
9.28987
9.29286
9.29644
9.29891
9.30104
9.30356
9.30498
9.30567
9.30596
4.43607
4.44238
4.45607
4.47981
4.51934
4.58757
4.7168
4.99193
5.56415
5.89505
6.18019
6.5943
6.84055
7.05661
7.36563
7.55506
7.72941
7.98619
8.12325
8.20941
8.29508
8.42108
8.49788
8.56436
8.65546
8.71021
8.75614
8.81699
8.85268
8.87963
8.91259
8.96733
8.99987
9.02731
9.06464
9.0873
9.10692
9.13381
9.15055
9.16583
9.18773
9.19959
9.20707
9.21429
9.22449
9.23086
9.2365
9.24423
9.24898
9.25311
9.2587
9.26202
9.26461
9.26789
9.27346
9.27678
9.27963
9.28363
9.28601
9.28806
9.29096
9.29236
9.29299
9.29324
4.31164
4.31651
4.32712
4.3456
4.37669
4.43163
4.5417
4.80858
5.51237
5.82827
6.092
6.57454
6.80292
7.00022
7.35601
7.53048
7.69101
7.99307
8.12084
8.19325
8.26994
8.41407
8.4843
8.54423
8.64774
8.69768
8.73886
8.80748
8.8397
8.8622
8.89239
8.9567
8.9869
9.01171
9.05412
9.07479
9.09244
9.12287
9.13811
9.15204
9.17753
9.18849
9.19474
9.20112
9.21259
9.21836
9.22341
9.23213
9.23644
9.24015
9.24645
9.24945
9.25161
9.25463
9.26121
9.2643
9.2669
9.27151
9.27371
9.2756
9.27903
9.28036
9.28089
9.2811
4.19233
4.19577
4.20327
4.2164
4.23867
4.27879
4.36366
4.60371
5.48908
5.76793
5.99287
6.57283
6.76905
6.93558
7.35908
7.50792
7.64472
8.01144
8.12229
8.1775
8.24135
8.41236
8.47201
8.52204
8.64398
8.6863
8.72048
8.80085
8.82795
8.84501
8.87077
8.94885
8.97485
8.99561
9.04553
9.06303
9.07774
9.11344
9.12631
9.13808
9.16875
9.17819
9.18293
9.18819
9.2016
9.20645
9.21065
9.22086
9.2245
9.22757
9.23497
9.23749
9.23913
9.24172
9.24974
9.2524
9.2546
9.26009
9.26196
9.26357
9.26777
9.26895
9.26935
9.2695
4.07801
4.08005
4.08449
4.09229
4.10558
4.12987
4.18381
4.36791
5.50431
5.71357
5.87613
6.59492
6.73849
6.85789
7.37898
7.4871
7.58624
8.04483
8.12711
8.16191
8.20738
8.41762
8.46085
8.49637
8.64531
8.67592
8.70004
8.7978
8.81733
8.82804
8.84686
8.94456
8.96367
8.9784
9.03932
9.05197
9.06239
9.10583
9.1151
9.12357
9.16168
9.16864
9.17162
9.17532
9.19163
9.19511
9.19808
9.21049
9.21311
9.21529
9.22429
9.2261
9.22713
9.22904
9.2391
9.24106
9.24263
9.24939
9.25076
9.25192
9.25719
9.25808
9.25834
9.25843
3.96859
3.96926
3.97072
3.97329
3.97769
3.98579
4.00447
4.08858
5.57128
5.66423
5.73306
6.64856
6.71064
6.76088
7.42137
7.4677
7.51001
8.09804
8.13441
8.14639
8.16559
8.43209
8.45062
8.46542
8.65327
8.66637
8.67635
8.79932
8.80768
8.81136
8.81954
8.9449
8.95322
8.95935
9.03611
9.04151
9.04585
9.10049
9.10443
9.10801
9.15668
9.15973
9.16076
9.1623
9.18281
9.18429
9.18553
9.20114
9.20225
9.20315
9.21449
9.21526
9.21562
9.21645
9.22938
9.23024
9.2309
9.23946
9.24005
9.24055
9.24733
9.24773
9.24782
9.24785
)
;

boundaryField
{
    left
    {
        type            zeroGradient;
    }
    right
    {
        type            zeroGradient;
    }
    interface
    {
        type            fixedValue;
        value           nonuniform List<scalar> 
64
(
3.91508
3.91508
3.91508
3.91508
3.91508
3.91508
3.91508
3.91508
5.64075
5.64075
5.64075
6.69733
6.69733
6.69733
7.45832
7.45832
7.45832
8.13862
8.13862
8.13862
8.13862
8.44572
8.44572
8.44572
8.66178
8.66178
8.66178
8.80309
8.80309
8.80309
8.80309
8.94817
8.94817
8.94817
9.03643
9.03643
9.03643
9.09922
9.09922
9.09922
9.15544
9.15544
9.15544
9.15544
9.17901
9.17901
9.17901
9.19695
9.19695
9.19695
9.20998
9.20998
9.20998
9.20998
9.22496
9.22496
9.22496
9.23482
9.23482
9.23482
9.24268
9.24268
9.24268
9.24268
)
;
    }
    bottom
    {
        type            fixedValue;
        value           uniform 10;
    }
    defaultFaces
    {
        type            empty;
    }
}


// ************************************************************************* //
