/*--------------------------------*- C++ -*----------------------------------*\
| =========                 |                                                 |
| \\      /  F ield         | OpenFOAM: The Open Source CFD Toolbox           |
|  \\    /   O peration     | Version:  5.x                                   |
|   \\  /    A nd           | Web:      www.OpenFOAM.org                      |
|    \\/     M anipulation  |                                                 |
\*---------------------------------------------------------------------------*/
FoamFile
{
    version     2.0;
    format      ascii;
    class       volScalarField;
    location    "4.6";
    object      gradTx;
}
// * * * * * * * * * * * * * * * * * * * * * * * * * * * * * * * * * * * * * //

dimensions      [0 -1 0 1 0 0 0];

internalField   nonuniform List<scalar> 
2048
(
0.0216751
0.0647767
0.107119
0.148127
0.187145
0.223457
0.256308
0.284983
0.308866
0.327519
0.340718
0.348474
0.351022
0.348781
0.342308
0.332252
0.319301
0.304142
0.287435
0.269776
0.251691
0.233617
0.215908
0.198829
0.182573
0.167267
0.152982
0.139745
0.127547
0.11635
0.106096
0.096716
0.0881344
0.0802756
0.0730685
0.0664495
0.0603631
0.0547627
0.0496092
0.0448708
0.0405207
0.0365366
0.0328982
0.0295869
0.0265835
0.0238686
0.0214215
0.0192204
0.0172427
0.0154654
0.0138652
0.0124191
0.0111044
0.00989952
0.00878397
0.00773912
0.00674844
0.00579773
0.00487529
0.00397185
0.00308043
0.00219609
0.00131584
0.000438235
0.0642818
0.192127
0.317776
0.439546
0.555492
0.663459
0.761173
0.846448
0.917419
0.972745
1.01175
1.03449
1.04168
1.03459
1.01492
0.984623
0.945764
0.90041
0.850521
0.797884
0.744056
0.690336
0.63776
0.587112
0.538951
0.493643
0.451391
0.412267
0.376236
0.343181
0.312926
0.285259
0.259952
0.236778
0.215525
0.196003
0.178048
0.161524
0.146315
0.132329
0.119488
0.107726
0.0969859
0.0872121
0.0783497
0.0703408
0.0631244
0.0566358
0.0508083
0.0455734
0.040862
0.0366055
0.032737
0.0291918
0.0259093
0.0228342
0.0199172
0.0171163
0.0143969
0.0117318
0.00910052
0.00648869
0.00388729
0.0012942
0.105563
0.315574
0.522157
0.722622
0.91377
1.09198
1.25337
1.39418
1.51119
1.6021
1.66576
1.70228
1.71293
1.69993
1.66616
1.61494
1.54975
1.47403
1.39107
1.3038
1.21481
1.12622
1.03971
0.956537
0.87759
0.803437
0.734388
0.670535
0.611802
0.557978
0.508757
0.463775
0.422645
0.384985
0.350443
0.318706
0.289507
0.262623
0.23787
0.215098
0.194186
0.175031
0.157541
0.141629
0.127207
0.114182
0.102453
0.0919155
0.0824582
0.073969
0.0663342
0.0594411
0.0531791
0.0474418
0.0421291
0.0371496
0.0324222
0.0278781
0.0234608
0.0191262
0.0148421
0.0105856
0.00634051
0.00210955
0.145799
0.435995
0.721839
0.999759
1.26533
1.51339
1.73827
1.93443
2.09706
2.22278
2.30993
2.35876
2.37119
2.35053
2.301
2.22737
2.1346
2.0276
1.91095
1.7888
1.66471
1.54161
1.42178
1.30689
1.19811
1.09616
1.00142
0.913973
0.833675
0.760202
0.693096
0.631825
0.575827
0.524559
0.477525
0.434292
0.394493
0.357829
0.324051
0.292964
0.264405
0.238242
0.214357
0.192636
0.172963
0.15521
0.139239
0.124905
0.112055
0.100532
0.0901799
0.0808418
0.0723646
0.0646003
0.0574094
0.0506647
0.0442538
0.0380815
0.0320705
0.0261615
0.0203121
0.014494
0.0086813
0.0028864
0.185146
0.553903
0.917807
1.27258
1.61261
1.93104
2.22015
2.47225
2.68067
2.84071
2.95018
3.00955
3.02161
2.99095
2.92333
2.82512
2.7029
2.56306
2.41158
2.25382
2.09432
1.93678
1.78402
1.63807
1.5003
1.37153
1.25217
1.14225
1.04154
0.94956
0.86569
0.789195
0.719324
0.655356
0.59665
0.542654
0.49291
0.447048
0.404766
0.365827
0.33004
0.29725
0.267321
0.24012
0.215504
0.193317
0.173383
0.155515
0.139518
0.125194
0.112342
0.100763
0.0902606
0.080646
0.0717397
0.0633779
0.055417
0.0477363
0.0402386
0.0328504
0.0255217
0.0182225
0.0109159
0.00362715
0.223644
0.669464
1.1105
1.542
1.9572
2.34737
2.70236
3.01182
3.26675
3.46087
3.59141
3.65925
3.66831
3.62475
3.53614
3.41064
3.25654
3.08184
2.89397
2.69951
2.50402
2.31192
2.12649
1.95004
1.78407
1.62943
1.4865
1.35523
1.23526
1.12596
1.02648
0.93586
0.853136
0.777396
0.707846
0.643822
0.584783
0.530298
0.480022
0.433683
0.391073
0.352025
0.316393
0.284033
0.254783
0.228455
0.204839
0.183705
0.164815
0.147927
0.132799
0.11919
0.106861
0.0955809
0.0851287
0.0753035
0.06593
0.0568624
0.047985
0.0392117
0.0304865
0.0217826
0.0130514
0.00433427
0.261215
0.782506
1.29981
1.80825
2.29996
2.76412
3.18758
3.55665
3.85937
4.08753
4.23778
4.31164
4.31455
4.25468
4.14166
3.98568
3.79687
3.58492
3.35875
3.12627
2.89403
2.66713
2.44924
2.24284
2.04944
1.86988
1.70442
1.55293
1.41488
1.28945
1.17555
1.07194
0.97741
0.890832
0.811262
0.737933
0.670235
0.607686
0.549907
0.496604
0.447557
0.402599
0.36159
0.324382
0.290799
0.260624
0.233607
0.209475
0.187946
0.168735
0.151558
0.136134
0.122182
0.109425
0.0976011
0.086469
0.0758213
0.0654879
0.0553359
0.0452681
0.0352251
0.0251879
0.0150959
0.0050104
0.297671
0.892533
1.48515
2.07093
2.64107
3.18233
3.67788
4.10975
4.46214
4.72447
4.89285
4.96982
4.96292
4.88278
4.7415
4.55147
4.32479
4.07288
3.80628
3.53426
3.26441
3.00245
2.75233
2.51655
2.29654
2.09299
1.90607
1.73548
1.58056
1.44024
1.31313
1.1977
1.09241
0.995924
0.907144
0.825211
0.749465
0.679387
0.614574
0.554718
0.499596
0.449055
0.402974
0.361216
0.323594
0.289861
0.259724
0.232862
0.208946
0.18765
0.16865
0.151626
0.136254
0.122214
0.109194
0.0969123
0.0851282
0.0736474
0.0623219
0.051046
0.0397582
0.0284531
0.017058
0.00565826
0.332719
0.998743
1.66543
2.32904
2.98004
3.60247
4.17491
4.67381
5.0784
5.37512
5.5597
5.63632
5.61533
5.51046
5.33667
5.10874
4.84078
4.54601
4.23665
3.92345
3.61511
3.31789
3.03585
2.77133
2.52556
2.29901
2.09168
1.90314
1.73255
1.57859
1.43954
1.31347
1.19849
1.09302
0.995811
0.905943
0.822727
0.745629
0.674226
0.6082
0.547336
0.49151
0.440639
0.394613
0.353236
0.31623
0.28325
0.253923
0.22787
0.204723
0.184122
0.16571
0.149124
0.133992
0.119954
0.106679
0.093894
0.0813803
0.0689774
0.0565734
0.0441076
0.0315933
0.0189463
0.00628055
0.36597
1.10004
1.83909
2.58096
3.31575
4.02447
4.67995
5.25136
5.71134
6.04268
6.24105
6.31317
6.27313
6.13859
5.92772
5.65784
5.34506
5.00437
4.64976
4.29368
3.946
3.61341
3.29988
3.0074
2.7368
2.48826
2.26158
2.05622
1.87117
1.70487
1.55519
1.4197
1.2961
1.18253
1.07764
0.980459
0.890317
0.806675
0.729099
0.65726
0.590955
0.530107
0.4747
0.424669
0.379816
0.339819
0.304272
0.27274
0.244792
0.22002
0.198032
0.178441
0.160842
0.144814
0.129934
0.115822
0.102167
0.0887292
0.0753386
0.0618802
0.0482957
0.0346236
0.0207691
0.00687973
0.396951
1.19508
2.00411
2.82448
3.64643
4.4477
5.194
5.84487
6.36417
6.73024
6.93931
7.0019
6.93714
6.76748
6.51475
6.19881
5.83763
5.44785
5.04536
4.64463
4.25684
3.88898
3.54459
3.22507
2.93066
2.66116
2.41618
2.1951
1.9968
1.81949
1.66054
1.5169
1.38574
1.26493
1.15304
1.04912
0.952552
0.862813
0.779454
0.702131
0.630651
0.565005
0.505286
0.451498
0.40344
0.360731
0.322891
0.289409
0.2598
0.233619
0.210449
0.189878
0.171468
0.154738
0.139195
0.124398
0.109997
0.0957383
0.0814427
0.0669962
0.0523446
0.0375584
0.0225338
0.00745787
0.425116
1.28227
2.15811
3.05681
3.96964
4.87102
5.71785
6.45693
7.04029
7.44084
7.65658
7.70358
7.6076
7.39698
7.09751
6.73144
6.31835
5.87624
5.42307
4.97586
4.54736
4.14457
3.77021
3.42475
3.10763
2.81821
2.55596
2.32021
2.10986
1.92289
1.75612
1.60563
1.46797
1.34073
1.22245
1.1123
1.00976
0.914343
0.82557
0.743067
0.66664
0.596376
0.532531
0.475218
0.424223
0.379084
0.339222
0.30404
0.272993
0.245605
0.221444
0.200085
0.181062
0.163828
0.147799
0.132464
0.117438
0.102452
0.0873269
0.0719513
0.0562761
0.0404109
0.0242463
0.00801632
0.449875
1.35988
2.29832
3.27459
4.28228
5.2927
6.25211
7.09039
7.74337
8.17752
8.39468
8.41881
8.28421
8.02644
7.67538
7.25533
6.78703
6.28932
5.78245
5.28684
4.81724
4.38021
3.97704
3.60693
3.26832
2.96
2.68143
2.43202
2.21074
2.01554
1.84248
1.68653
1.54338
1.41044
1.28632
1.17037
1.06227
0.961569
0.867734
0.780338
0.699153
0.624392
0.556567
0.495947
0.442288
0.395003
0.353393
0.316754
0.284477
0.25607
0.231093
0.209124
0.189683
0.172147
0.155813
0.140083
0.124542
0.108915
0.0930269
0.0767745
0.0601112
0.0431924
0.0259101
0.00855543
0.470616
1.42606
2.42172
3.47396
4.58049
5.71037
6.79728
7.74856
8.47761
8.94336
9.1551
9.14766
8.96607
8.65476
8.24751
7.76998
7.24353
6.68695
6.12293
5.57688
5.06612
4.59598
4.16548
3.77225
3.41342
3.08719
2.79319
2.53099
2.29985
2.09788
1.92025
1.76027
1.61262
1.47462
1.34509
1.22369
1.1104
1.00479
0.906237
0.814225
0.728431
0.649224
0.577516
0.513804
0.457762
0.408623
0.365539
0.327679
0.294366
0.265107
0.239469
0.217053
0.19739
0.179764
0.163307
0.147316
0.13136
0.115168
0.0985764
0.0814936
0.0638699
0.0459121
0.027526
0.00907412
0.48674
1.47895
2.52511
3.65056
4.85964
6.12089
7.35368
8.43542
9.24782
9.74141
9.93896
9.88968
9.65167
9.28043
8.81281
8.27478
7.68788
7.06913
6.4439
5.84511
5.29362
4.79207
4.33606
3.92147
3.54375
3.20049
2.89184
2.6176
2.37754
2.17033
1.99006
1.82761
1.67634
1.53381
1.39919
1.27258
1.15444
1.0443
0.941369
0.845025
0.754727
0.671034
0.595482
0.528897
0.470776
0.420081
0.375804
0.336951
0.302775
0.272814
0.246646
0.223924
0.204232
0.186745
0.170353
0.154224
0.137943
0.121251
0.104006
0.0861357
0.0675719
0.0485768
0.029091
0.00956948
0.497692
1.51678
2.60525
3.79964
5.11425
6.52019
7.92147
9.15594
10.0598
10.5746
10.7469
10.6439
10.3388
9.90154
9.37005
8.76907
8.12035
7.43614
6.74459
6.09045
5.49939
4.96883
4.48939
4.05545
3.66025
3.30067
2.97806
2.69235
2.44407
2.23325
2.05261
1.88937
1.73521
1.58854
1.44903
1.31734
1.19468
1.08038
0.973411
0.873052
0.778314
0.689966
0.610543
0.541331
0.481466
0.429522
0.384339
0.344712
0.309821
0.279286
0.252694
0.229777
0.210255
0.193162
0.177031
0.160866
0.144335
0.1272
0.109342
0.0907271
0.0712376
0.0511899
0.0305972
0.0100363
0.503001
1.53795
2.659
3.9162
5.33799
6.90304
8.50052
9.91646
10.9203
11.4454
11.5791
11.4088
11.0245
10.5159
9.91796
9.25208
8.54159
7.7887
7.02405
6.31142
5.68308
5.12682
4.62619
4.1752
3.76397
3.38848
3.05254
2.75575
2.49961
2.28691
2.10868
1.94647
1.7899
1.63935
1.49501
1.3582
1.23134
1.11331
1.00262
0.898639
0.799491
0.706143
0.62274
0.5512
0.489976
0.437089
0.391299
0.351109
0.315616
0.284624
0.257684
0.234642
0.215489
0.199092
0.183423
0.167299
0.150579
0.133045
0.114604
0.095294
0.0748892
0.0537512
0.0320306
0.0104665
0.502315
1.54118
2.6835
3.99511
5.52363
7.26274
9.09013
10.7252
11.8379
12.3554
12.435
12.1826
11.7048
11.121
10.4554
9.7228
8.95281
8.12818
7.28102
6.50608
5.8445
5.26691
4.74721
4.28187
3.85609
3.46464
3.11602
2.80835
2.54413
2.33141
2.15913
1.99996
1.84102
1.6867
1.5375
1.39531
1.26466
1.14335
1.02924
0.922154
0.818596
0.719648
0.632059
0.558599
0.496467
0.442922
0.396848
0.356299
0.320268
0.288927
0.261685
0.238524
0.21995
0.204618
0.189627
0.173568
0.156712
0.138814
0.119803
0.0998637
0.0785536
0.056256
0.0333701
0.0108492
0.495427
1.52556
2.67635
4.03132
5.66309
7.59076
9.68874
11.5931
12.823
13.3049
13.3136
12.9634
12.3745
11.7145
10.9814
10.1797
9.35594
8.4569
7.51371
6.67174
5.98368
5.39043
4.85311
4.37673
3.93798
3.52974
3.16934
2.8508
2.57741
2.36665
2.20501
2.05108
1.88907
1.73107
1.57687
1.42871
1.29485
1.17077
1.05342
0.944005
0.836034
0.730511
0.638416
0.563628
0.501122
0.447149
0.401155
0.360445
0.323868
0.292302
0.264773
0.241408
0.223629
0.209841
0.195754
0.179709
0.162765
0.144535
0.124938
0.104466
0.0822659
0.0586932
0.0345856
0.0111698
0.4823
1.49068
2.63577
4.02017
5.74753
7.87627
10.2932
12.5345
13.8888
14.2912
14.213
13.7494
13.0266
12.2942
11.4957
10.6203
9.7539
8.77855
7.7195
6.80471
6.10111
5.4993
4.94432
4.46123
4.01125
3.5841
3.21341
2.88394
2.59888
2.39225
2.24761
2.10132
1.93435
1.77287
1.61353
1.45828
1.3221
1.19588
1.07524
0.964663
0.852306
0.738681
0.641634
0.566406
0.504163
0.449872
0.404401
0.363728
0.326483
0.294861
0.267038
0.243241
0.226489
0.214886
0.201937
0.18573
0.168768
0.150233
0.129988
0.109138
0.0860748
0.0610435
0.0356358
0.0114105
0.463079
1.43665
2.56081
3.95762
5.76761
8.10572
10.8978
13.5689
15.0518
15.3069
15.1314
14.5404
13.6518
12.8584
11.9992
11.0403
10.1509
9.0988
7.89449
6.89995
6.19801
5.59635
5.02067
4.53704
4.07788
3.62755
3.24933
2.90891
2.60756
2.40735
2.28861
2.15249
1.97684
1.81253
1.64796
1.48369
1.34665
1.21906
1.09459
0.984687
0.86806
0.743988
0.641414
0.567099
0.505871
0.451143
0.406779
0.366349
0.328132
0.296735
0.268595
0.24393
0.228444
0.219913
0.208342
0.191604
0.174745
0.155944
0.134904
0.113921
0.0900496
0.0632751
0.0364667
0.0115502
0.438088
1.36417
2.45145
3.84066
5.71381
8.26237
11.4926
14.7224
16.3338
16.3378
16.0672
15.3378
14.2364
13.4072
12.4945
11.4323
10.5531
9.4261
8.03283
6.95057
6.27682
5.68557
5.08097
4.60617
4.14037
3.65914
3.27847
2.9274
2.60189
2.41054
2.33022
2.20689
2.0159
1.8505
1.68084
1.50423
1.36883
1.24078
1.11109
1.00477
0.884155
0.746093
0.637297
0.565953
0.506605
0.450927
0.408509
0.368549
0.328767
0.298076
0.269605
0.243319
0.229353
0.225141
0.215183
0.197238
0.180729
0.161719
0.139591
0.118876
0.09429
0.065338
0.037009
0.011565
0.40782
1.27448
2.30873
3.66759
5.57698
8.32598
12.0615
16.0301
17.7629
17.3584
17.02
16.1474
14.761
13.9425
12.987
11.784
10.9691
9.77274
8.12581
6.94734
6.34176
5.77259
5.12222
4.67114
4.20209
3.67664
3.3026
2.94184
2.57951
2.39956
2.37546
2.26747
2.05003
1.88735
1.71317
1.51867
1.38911
1.26177
1.12391
1.02578
0.901752
0.744407
0.628625
0.563341
0.506844
0.449043
0.409853
0.370631
0.328225
0.299078
0.270294
0.241178
0.228988
0.230868
0.222735
0.202445
0.186766
0.16764
0.143889
0.124081
0.0989388
0.0671545
0.0371767
0.0114291
0.372912
1.16935
2.13474
3.43842
5.34907
8.27276
12.5785
17.5391
19.3766
18.3267
17.9928
16.9811
15.1971
14.4702
13.4866
12.0755
11.411
10.1563
8.16057
6.87802
6.39966
5.86519
5.13863
4.73536
4.26763
3.67587
3.32414
2.95584
2.53703
2.37104
2.42842
2.33806
2.07633
1.92393
1.74643
1.52497
1.40825
1.28306
1.13158
1.04887
0.922432
0.73799
0.614495
0.559827
0.507224
0.445089
0.411143
0.372991
0.326174
0.299995
0.270991
0.237173
0.227013
0.237502
0.231362
0.206894
0.192937
0.173841
0.147538
0.129653
0.104198
0.068606
0.0368658
0.0111159
0.334111
1.05094
1.93263
3.15506
5.02404
8.07574
13.0037
19.3124
21.2251
19.1769
18.9949
17.8599
15.5023
15.002
14.0096
12.2754
11.8959
10.6015
8.11842
6.72671
6.46095
5.97407
5.12015
4.80361
4.34341
3.64976
3.34651
2.97456
2.46968
2.32016
2.49468
2.42369
2.08992
1.96157
1.78289
1.51992
1.42745
1.30619
1.13164
1.07557
0.94834
0.725411
0.593706
0.556248
0.508596
0.438329
0.41282
0.376163
0.32203
0.30117
0.272167
0.230842
0.222942
0.245604
0.24155
0.210038
0.199379
0.180539
0.150133
0.135754
0.110348
0.0695133
0.0359555
0.0106003
0.292235
0.92178
1.70645
2.82155
4.59888
7.70594
13.2767
21.4332
23.3756
19.8096
20.0453
18.8185
15.6146
15.5582
14.5813
12.3355
12.4482
11.1421
7.97259
6.47316
6.54095
6.11368
5.05052
4.88277
4.43846
3.58706
3.37456
3.00531
2.37093
2.24018
2.58179
2.53099
2.08306
2.00245
1.82589
1.49861
1.4486
1.33347
1.12024
1.108
0.982366
0.704563
0.564715
0.55381
0.512095
0.427537
0.415501
0.380887
0.31485
0.303081
0.274484
0.221556
0.216093
0.255935
0.253947
0.21103
0.206327
0.188068
0.151062
0.142627
0.117772
0.06961
0.0343124
0.00986107
0.248135
0.78455
1.46098
2.44404
4.07476
7.13449
13.3093
24.0106
25.9192
20.0784
21.179
19.9099
15.4438
16.1714
15.2403
12.1844
13.1017
11.8238
7.6855
6.09214
6.66123
6.30341
4.90476
4.98294
4.56533
3.47061
3.41525
3.05815
2.23197
2.12194
2.69979
2.66871
2.04403
2.05002
1.88034
1.45372
1.47459
1.36822
1.09158
1.14903
1.02836
0.672431
0.525593
0.554203
0.519229
0.410806
0.420061
0.388183
0.303186
0.306395
0.27885
0.208479
0.205538
0.269513
0.269421
0.208602
0.214168
0.19693
0.149422
0.150622
0.126986
0.0685058
0.0317992
0.00888426
0.20265
0.642
1.2015
2.03066
3.45803
6.33619
12.9744
27.1862
28.978
19.7743
22.4548
21.2121
14.8605
16.8919
16.0423
11.7187
13.9042
12.707
7.20521
5.55296
6.85118
6.569
4.64598
5.11883
4.74141
3.27522
3.47857
3.1466
2.04119
1.95326
2.86187
2.8484
1.95571
2.10973
1.95318
1.37461
1.50974
1.41522
1.03716
1.20267
1.09136
0.6248
0.473999
0.559719
0.531989
0.385292
0.427747
0.399454
0.284902
0.312051
0.286489
0.190523
0.190035
0.287677
0.289128
0.200916
0.223507
0.207855
0.143917
0.160245
0.138667
0.0656405
0.0282903
0.00766692
0.156576
0.496797
0.933458
1.59111
2.76103
5.29482
12.0942
31.1412
32.716
18.6049
23.9648
22.8351
13.6829
17.794
17.066
10.7922
14.9216
13.8698
6.46133
4.81924
7.14968
6.9443
4.22138
5.31166
4.99028
2.96494
3.57872
3.28837
1.78353
1.71829
3.08503
3.08525
1.79386
2.1898
2.05404
1.24619
1.56033
1.48113
0.944927
1.27443
1.17787
0.555907
0.407175
0.57338
0.552987
0.34691
0.440327
0.416609
0.256941
0.321357
0.298998
0.166294
0.167954
0.312158
0.314602
0.185376
0.235263
0.221875
0.132721
0.172221
0.153692
0.0602248
0.0236958
0.00622122
0.110635
0.351418
0.662229
1.13614
2.0023
4.01061
10.4245
36.1044
37.351
16.1702
25.8476
24.9295
11.6601
18.9837
18.4199
9.20282
16.2449
15.4114
5.36014
3.84905
7.60657
7.4734
3.55755
5.5915
5.34347
2.48981
3.73563
3.50605
1.43982
1.39678
3.39083
3.39906
1.52502
2.30232
2.19592
1.04754
1.63532
1.57505
0.798204
1.37186
1.29612
0.458034
0.321983
0.599059
0.58562
0.289959
0.460276
0.442205
0.215053
0.336121
0.318421
0.134041
0.137203
0.345154
0.347863
0.158407
0.25078
0.240407
0.113319
0.187569
0.173172
0.0511693
0.0179973
0.00457815
0.0654566
0.208056
0.392802
0.676806
1.20614
2.5102
7.63679
42.3612
43.1698
11.9342
28.3031
27.6959
8.45261
20.6091
20.2496
6.67777
17.9973
17.4556
3.77913
2.59558
8.28401
8.21322
2.55492
6.00021
5.84231
1.78201
3.97691
3.82776
0.986066
0.963405
3.80603
3.81553
1.10401
2.46457
2.39602
0.75024
1.74709
1.70916
0.574406
1.50518
1.45632
0.321039
0.214977
0.641576
0.634273
0.206691
0.490998
0.479607
0.153469
0.358818
0.347299
0.0916034
0.095135
0.389395
0.39155
0.115197
0.27197
0.265346
0.0823225
0.207704
0.198492
0.0370005
0.0112958
0.00279012
0.021563
0.0685616
0.129556
0.223691
0.400997
0.859313
3.29769
50.2617
50.5457
5.19228
31.6109
31.395
3.61027
22.871
22.7462
2.85595
20.3436
20.1529
1.56099
1.00843
9.25743
9.23659
1.08146
6.59475
6.53996
0.751524
4.34016
4.28762
0.392782
0.386993
4.36324
4.36762
0.47121
2.70052
2.67654
0.316542
1.91247
1.89942
0.243622
1.68806
1.67094
0.131849
0.0825381
0.706763
0.704559
0.0868195
0.537093
0.533167
0.0645328
0.392783
0.388717
0.0363674
0.0384711
0.448216
0.449072
0.0493907
0.30147
0.299166
0.0352498
0.23455
0.23134
0.0157656
0.0038762
0.000931828
)
;

boundaryField
{
    left
    {
        type            calculated;
        value           uniform 0;
    }
    right
    {
        type            calculated;
        value           uniform 0;
    }
    interface
    {
        type            calculated;
        value           nonuniform List<scalar> 
64
(
0.021563
0.0685616
0.129556
0.223691
0.400997
0.859313
3.29769
50.2617
50.5457
5.19228
31.6109
31.395
3.61027
22.871
22.7462
2.85595
20.3436
20.1529
1.56099
1.00843
9.25743
9.23659
1.08146
6.59475
6.53996
0.751524
4.34016
4.28762
0.392782
0.386993
4.36324
4.36762
0.47121
2.70052
2.67654
0.316542
1.91247
1.89942
0.243622
1.68806
1.67094
0.131849
0.0825381
0.706763
0.704559
0.0868195
0.537093
0.533167
0.0645328
0.392783
0.388717
0.0363674
0.0384711
0.448216
0.449072
0.0493907
0.30147
0.299166
0.0352498
0.23455
0.23134
0.0157656
0.0038762
0.000931828
)
;
    }
    bottom
    {
        type            calculated;
        value           nonuniform List<scalar> 
64
(
0.0216751
0.0647767
0.107119
0.148127
0.187145
0.223457
0.256308
0.284983
0.308866
0.327519
0.340718
0.348474
0.351022
0.348781
0.342308
0.332252
0.319301
0.304142
0.287435
0.269776
0.251691
0.233617
0.215908
0.198829
0.182573
0.167267
0.152982
0.139745
0.127547
0.11635
0.106096
0.096716
0.0881344
0.0802756
0.0730685
0.0664495
0.0603631
0.0547627
0.0496092
0.0448708
0.0405207
0.0365366
0.0328982
0.0295869
0.0265835
0.0238686
0.0214215
0.0192204
0.0172427
0.0154654
0.0138652
0.0124191
0.0111044
0.00989952
0.00878397
0.00773912
0.00674844
0.00579773
0.00487529
0.00397185
0.00308043
0.00219609
0.00131584
0.000438235
)
;
    }
    defaultFaces
    {
        type            empty;
    }
}


// ************************************************************************* //
