/*--------------------------------*- C++ -*----------------------------------*\
| =========                 |                                                 |
| \\      /  F ield         | OpenFOAM: The Open Source CFD Toolbox           |
|  \\    /   O peration     | Version:  5.x                                   |
|   \\  /    A nd           | Web:      www.OpenFOAM.org                      |
|    \\/     M anipulation  |                                                 |
\*---------------------------------------------------------------------------*/
FoamFile
{
    version     2.0;
    format      ascii;
    class       volScalarField;
    location    "4.6";
    object      gradTy;
}
// * * * * * * * * * * * * * * * * * * * * * * * * * * * * * * * * * * * * * //

dimensions      [0 -1 0 1 0 0 0];

internalField   nonuniform List<scalar> 
2048
(
-20.4407
-20.3462
-20.1583
-19.8791
-19.5121
-19.0625
-18.537
-17.9438
-17.2929
-16.5955
-15.8633
-15.1084
-14.3427
-13.5771
-12.8217
-12.0849
-11.3738
-10.694
-10.0494
-9.44281
-8.87556
-8.34802
-7.85971
-7.40945
-6.9956
-6.61617
-6.26896
-5.95169
-5.66205
-5.39781
-5.15682
-4.93712
-4.73686
-4.55441
-4.38828
-4.23712
-4.09973
-3.975
-3.86193
-3.75959
-3.66711
-3.58367
-3.5085
-3.44087
-3.38009
-3.32551
-3.27651
-3.23255
-3.19311
-3.15773
-3.12601
-3.09757
-3.07211
-3.04936
-3.02913
-3.01122
-2.99551
-2.9819
-2.97032
-2.96071
-2.95305
-2.94732
-2.94351
-2.9416
-20.5171
-20.4218
-20.232
-19.95
-19.579
-19.1239
-18.5916
-17.9904
-17.3306
-16.6235
-15.8816
-15.1172
-14.3425
-13.5689
-12.8065
-12.064
-11.3484
-10.6653
-10.0186
-9.41088
-8.84333
-8.31619
-7.82881
-7.37988
-6.96764
-6.58998
-6.24462
-5.92921
-5.64138
-5.37886
-5.13948
-4.92124
-4.72232
-4.54107
-4.37602
-4.22584
-4.08933
-3.96542
-3.8531
-3.75147
-3.65964
-3.57683
-3.50225
-3.43518
-3.37492
-3.32082
-3.27228
-3.22874
-3.18967
-3.15462
-3.12319
-3.095
-3.06975
-3.04718
-3.02708
-3.00928
-2.99366
-2.98011
-2.96856
-2.95898
-2.95134
-2.94561
-2.9418
-2.9399
-20.6624
-20.5654
-20.3724
-20.0851
-19.7064
-19.2411
-18.6959
-18.0793
-17.4022
-16.6767
-15.9159
-15.1332
-14.3415
-13.5525
-12.7769
-12.0236
-11.2996
-10.6103
-9.95966
-9.34984
-8.78184
-8.25556
-7.77005
-7.32374
-6.91461
-6.54036
-6.19856
-5.8867
-5.60233
-5.34308
-5.10675
-4.8913
-4.6949
-4.51592
-4.3529
-4.20456
-4.06972
-3.94734
-3.83643
-3.73612
-3.64554
-3.5639
-3.49044
-3.42443
-3.36516
-3.312
-3.26431
-3.22155
-3.18319
-3.14877
-3.11788
-3.09016
-3.06531
-3.04307
-3.02324
-3.00564
-2.99016
-2.97672
-2.96524
-2.95571
-2.94809
-2.94239
-2.93858
-2.93669
-20.8682
-20.7693
-20.5719
-20.2774
-19.8881
-19.4084
-18.8448
-18.2063
-17.5042
-16.752
-15.964
-15.1548
-14.3385
-13.5276
-12.7333
-11.9646
-11.2287
-10.531
-9.87494
-9.26245
-8.69408
-8.16928
-7.68666
-7.24423
-6.83966
-6.47036
-6.13367
-5.82691
-5.54748
-5.2929
-5.06088
-4.84935
-4.65649
-4.48068
-4.32051
-4.17473
-4.04221
-3.92196
-3.81303
-3.71457
-3.62573
-3.54575
-3.47386
-3.40934
-3.35148
-3.29962
-3.25315
-3.21149
-3.17412
-3.14059
-3.11048
-3.08342
-3.05913
-3.03735
-3.01787
-3.00055
-2.98527
-2.97197
-2.96059
-2.95112
-2.94354
-2.93785
-2.93405
-2.93216
-21.1277
-21.0265
-20.8241
-20.5211
-20.1191
-19.6215
-19.0346
-18.3677
-17.6334
-16.8465
-16.0233
-15.18
-14.3321
-13.4933
-12.6752
-11.8873
-11.1368
-10.4287
-9.76631
-9.15091
-8.58254
-8.06002
-7.58138
-7.14416
-6.74556
-6.38268
-6.05258
-5.75234
-5.47919
-5.23051
-5.00392
-4.79731
-4.60885
-4.43697
-4.2803
-4.13768
-4.00803
-3.89041
-3.78392
-3.68773
-3.60106
-3.52314
-3.45322
-3.39056
-3.33447
-3.28425
-3.2393
-3.19902
-3.16291
-3.13048
-3.10133
-3.0751
-3.0515
-3.03028
-3.01125
-2.99426
-2.97923
-2.96609
-2.95482
-2.94541
-2.93786
-2.93218
-2.92838
-2.9265
-21.4343
-21.3309
-21.1235
-20.8115
-20.3952
-19.8768
-19.2622
-18.5611
-17.7874
-16.958
-16.0916
-15.2068
-14.3208
-13.4485
-12.6023
-11.7919
-11.0243
-10.3046
-9.63517
-9.01701
-8.44928
-7.93007
-7.45668
-7.02602
-6.63482
-6.27978
-5.95764
-5.66525
-5.39962
-5.15796
-4.93778
-4.73693
-4.55359
-4.38624
-4.23362
-4.09462
-3.96827
-3.85367
-3.74999
-3.65645
-3.5723
-3.49678
-3.42916
-3.3687
-3.31467
-3.2664
-3.22323
-3.18458
-3.14992
-3.11879
-3.09077
-3.06551
-3.04271
-3.02214
-3.00361
-2.987
-2.97223
-2.95927
-2.9481
-2.93875
-2.93123
-2.92556
-2.92176
-2.91988
-21.7822
-21.677
-21.4651
-21.1443
-20.713
-20.1718
-19.5256
-18.7844
-17.9639
-17.0841
-16.1666
-15.233
-14.3026
-13.3919
-12.5136
-11.6779
-10.8915
-10.1591
-9.48265
-8.86223
-8.29614
-7.78149
-7.31475
-6.89209
-6.50971
-6.16388
-5.85102
-5.56772
-5.31074
-5.07711
-4.8642
-4.66982
-4.49217
-4.32984
-4.18166
-4.04665
-3.92392
-3.81265
-3.71208
-3.62147
-3.54011
-3.46728
-3.40225
-3.34427
-3.2926
-3.24652
-3.20537
-3.16855
-3.13553
-3.10586
-3.0791
-3.05492
-3.03302
-3.01316
-2.99518
-2.97897
-2.96447
-2.95168
-2.94062
-2.93131
-2.9238
-2.91813
-2.91431
-2.91243
-22.1659
-22.0596
-21.8444
-21.516
-21.0701
-20.5047
-19.8232
-19.0362
-18.1615
-17.2228
-16.2462
-15.2565
-14.2759
-13.322
-12.4083
-11.5449
-10.7385
-9.99289
-9.30967
-8.6879
-8.12475
-7.61618
-7.15762
-6.74446
-6.3723
-6.037
-5.73468
-5.46162
-5.21435
-4.98967
-4.78478
-4.59744
-4.42592
-4.26895
-4.12551
-3.99474
-3.87587
-3.76816
-3.67091
-3.58344
-3.5051
-3.4352
-3.37301
-3.31776
-3.26868
-3.22501
-3.18608
-3.15127
-3.12006
-3.09197
-3.0666
-3.0436
-3.02266
-3.00357
-2.98616
-2.97035
-2.95613
-2.9435
-2.93251
-2.92322
-2.9157
-2.91002
-2.90618
-2.90429
-22.5797
-22.4736
-22.2572
-21.9234
-21.4642
-20.8742
-20.1545
-19.3156
-18.3786
-17.3723
-16.328
-15.2751
-14.2385
-13.2373
-12.2855
-11.3927
-10.5652
-9.80637
-9.11705
-8.49522
-7.93667
-7.43593
-6.98722
-6.58507
-6.22451
-5.90101
-5.61039
-5.34867
-5.1121
-4.89719
-4.70097
-4.52113
-4.35605
-4.20464
-4.0661
-3.93973
-3.82488
-3.72088
-3.62711
-3.54294
-3.46779
-3.40101
-3.34188
-3.28959
-3.24331
-3.20226
-3.16572
-3.13307
-3.10378
-3.07739
-3.0535
-3.03175
-3.01184
-2.99355
-2.97673
-2.96132
-2.94734
-2.93484
-2.9239
-2.91461
-2.90706
-2.90134
-2.89747
-2.89557
-23.0184
-22.9141
-22.6994
-22.3636
-21.8939
-21.28
-20.5193
-19.6223
-18.6142
-17.5306
-16.4097
-15.2863
-14.1884
-13.1364
-12.1441
-11.2207
-10.3716
-9.59991
-8.90553
-8.28535
-7.73339
-7.24244
-6.80536
-6.41577
-6.06812
-5.75758
-5.47975
-5.2304
-5.00546
-4.80111
-4.61411
-4.44208
-4.2836
-4.13785
-4.00428
-3.88239
-3.77164
-3.67145
-3.58124
-3.50048
-3.42864
-3.36513
-3.30925
-3.26012
-3.21685
-3.17858
-3.14458
-3.1142
-3.08694
-3.06235
-3.04001
-3.01959
-3.00076
-2.98329
-2.96705
-2.95202
-2.93825
-2.92585
-2.91492
-2.90558
-2.89797
-2.89219
-2.88828
-2.88636
-23.4766
-23.3761
-23.167
-22.834
-22.3582
-21.7222
-20.9184
-19.9567
-18.8675
-17.6957
-16.4888
-15.2876
-14.1236
-13.0179
-11.9835
-11.0286
-10.158
-9.37386
-8.67581
-8.05938
-7.5164
-7.03743
-6.61383
-6.23828
-5.90476
-5.60826
-5.34422
-5.10819
-4.89577
-4.70273
-4.52542
-4.3614
-4.20953
-4.06939
-3.94075
-3.82334
-3.71674
-3.6204
-3.53381
-3.45649
-3.38803
-3.32792
-3.27546
-3.2297
-3.18961
-3.15428
-3.12293
-3.09493
-3.06978
-3.04704
-3.02632
-3.00728
-2.98956
-2.97293
-2.95726
-2.94257
-2.92897
-2.91661
-2.90565
-2.89623
-2.88853
-2.88267
-2.87869
-2.87675
-23.9488
-23.8548
-23.656
-23.3321
-22.8561
-22.2017
-21.3534
-20.3194
-19.1374
-17.8655
-16.5625
-15.2764
-14.0421
-12.8805
-11.8031
-10.8165
-9.92444
-9.12857
-8.42853
-7.81842
-7.28719
-6.8226
-6.41436
-6.05427
-5.73594
-5.45442
-5.20507
-4.98325
-4.78426
-4.60325
-4.43602
-4.28004
-4.13465
-3.99996
-3.87612
-3.76315
-3.66069
-3.5682
-3.48523
-3.41136
-3.34629
-3.28967
-3.2408
-3.1986
-3.16187
-3.12961
-3.10102
-3.07545
-3.05246
-3.03163
-3.01259
-2.99497
-2.97841
-2.96262
-2.94748
-2.93308
-2.9196
-2.90723
-2.89618
-2.88664
-2.87879
-2.87283
-2.86878
-2.86683
-24.4294
-24.345
-24.1625
-23.8554
-23.3874
-22.7199
-21.8266
-20.712
-19.4234
-18.0376
-16.6278
-15.2497
-13.9416
-12.723
-11.6024
-10.5845
-9.67135
-8.86438
-8.16423
-7.56358
-7.04734
-6.59967
-6.20866
-5.86532
-5.56306
-5.29728
-5.06343
-4.85665
-4.67197
-4.50378
-4.34696
-4.19888
-4.05966
-3.93012
-3.81088
-3.70226
-3.60392
-3.51527
-3.43588
-3.3654
-3.30368
-3.25062
-3.20552
-3.16708
-3.13388
-3.10482
-3.07904
-3.05596
-3.03515
-3.01627
-2.99894
-2.9828
-2.96743
-2.95247
-2.93782
-2.92365
-2.91022
-2.89777
-2.88658
-2.87686
-2.86884
-2.86274
-2.85861
-2.85664
-24.913
-24.8415
-24.682
-24.4013
-23.9518
-23.2793
-22.3414
-21.1364
-19.7243
-18.2089
-16.6814
-15.2045
-13.8202
-12.5449
-11.3815
-10.333
-9.39928
-8.58155
-7.88335
-7.29598
-6.79854
-6.37041
-5.99839
-5.67295
-5.38737
-5.13791
-4.92025
-4.72927
-4.55986
-4.40536
-4.25924
-4.1187
-3.98514
-3.86036
-3.74542
-3.64104
-3.54683
-3.46196
-3.38609
-3.3189
-3.26041
-3.21095
-3.16984
-3.13539
-3.10587
-3.08009
-3.05719
-3.03659
-3.01799
-3.00107
-2.98548
-2.97087
-2.95674
-2.94261
-2.92838
-2.91436
-2.90089
-2.8883
-2.87691
-2.86696
-2.85871
-2.85245
-2.84824
-2.84626
-25.394
-25.3392
-25.2102
-24.967
-24.5491
-23.8825
-22.9026
-21.5956
-20.0387
-18.376
-16.7196
-15.1375
-13.676
-12.3455
-11.1406
-10.0629
-9.10909
-8.28018
-7.58609
-7.01679
-6.54264
-6.1366
-5.78521
-5.47862
-5.20995
-4.97724
-4.77637
-4.60181
-4.44872
-4.30901
-4.17383
-4.04014
-3.91153
-3.79103
-3.68003
-3.57981
-3.48975
-3.40859
-3.33616
-3.27211
-3.21665
-3.17078
-3.13392
-3.10374
-3.07805
-3.05564
-3.03564
-3.01749
-3.00107
-2.98612
-2.97229
-2.95927
-2.94645
-2.93314
-2.91923
-2.90525
-2.89168
-2.87887
-2.86722
-2.85698
-2.84844
-2.842
-2.83771
-2.83576
-25.867
-25.8327
-25.7423
-25.5492
-25.1789
-24.5333
-23.5162
-22.0937
-20.3644
-18.5343
-16.7387
-15.0449
-13.5073
-12.1253
-10.88
-9.77527
-8.80205
-7.96013
-7.27235
-6.72727
-6.28176
-5.90002
-5.5707
-5.28375
-5.03173
-4.816
-4.63251
-4.4748
-4.33922
-4.21571
-4.09173
-3.96375
-3.83917
-3.72242
-3.61489
-3.5188
-3.43299
-3.35542
-3.28637
-3.22528
-3.17246
-3.13019
-3.09792
-3.07236
-3.05061
-3.03163
-3.01453
-2.99875
-2.98448
-2.9715
-2.95941
-2.94807
-2.93667
-2.92417
-2.91043
-2.89638
-2.88263
-2.86952
-2.85756
-2.84698
-2.83808
-2.83142
-2.82708
-2.82517
-26.3269
-26.3169
-26.2735
-26.1443
-25.8407
-25.2357
-24.1903
-22.636
-20.6977
-18.6784
-16.735
-14.9228
-13.3123
-11.885
-10.6006
-9.47174
-8.48001
-7.62079
-6.94151
-6.42885
-6.01842
-5.6624
-5.35635
-5.08978
-4.85342
-4.65481
-4.48931
-4.34851
-4.23185
-4.12653
-4.01401
-3.88991
-3.76822
-3.65477
-3.55008
-3.45818
-3.37687
-3.30269
-3.23698
-3.17865
-3.12788
-3.08917
-3.062
-3.04146
-3.02371
-3.0082
-2.994
-2.98045
-2.96828
-2.95727
-2.94689
-2.93732
-2.92749
-2.9158
-2.90203
-2.88779
-2.87379
-2.86027
-2.84796
-2.83701
-2.82764
-2.82073
-2.81638
-2.81457
-26.7687
-26.7867
-26.7985
-26.748
-26.533
-25.9943
-24.9352
-23.2302
-21.0326
-18.8014
-16.7056
-14.7663
-13.0897
-11.627
-10.3025
-9.15437
-8.14578
-7.26079
-6.59225
-6.12322
-5.75574
-5.42524
-5.14351
-4.89827
-4.67541
-4.49408
-4.34744
-4.22295
-4.1269
-4.04259
-3.94191
-3.81878
-3.69871
-3.58831
-3.48554
-3.39808
-3.32175
-3.25055
-3.18825
-3.13253
-3.08282
-3.04762
-3.02629
-3.01132
-2.99751
-2.98549
-2.97419
-2.96263
-2.95253
-2.94349
-2.93472
-2.92705
-2.91904
-2.90816
-2.89405
-2.87948
-2.8652
-2.85115
-2.83848
-2.82711
-2.81714
-2.80995
-2.80565
-2.80402
-27.1881
-27.2371
-27.312
-27.355
-27.2536
-26.8134
-25.7637
-23.8871
-21.3592
-18.8948
-16.6493
-14.5693
-12.8382
-11.3553
-9.98572
-8.8256
-7.80372
-6.87752
-6.2223
-5.81254
-5.49776
-5.18961
-4.93335
-4.71101
-4.49768
-4.33409
-4.20773
-4.09773
-4.0244
-3.96522
-3.87695
-3.75019
-3.63048
-3.52333
-3.42104
-3.33858
-3.26807
-3.19905
-3.14042
-3.08729
-3.0371
-3.00536
-2.99096
-2.98225
-2.97209
-2.96361
-2.95527
-2.9453
-2.93725
-2.93024
-2.92286
-2.91726
-2.91145
-2.90141
-2.88648
-2.87146
-2.85691
-2.84215
-2.82914
-2.81738
-2.80658
-2.79908
-2.79494
-2.79358
-27.5811
-27.6637
-27.8083
-27.9596
-27.9987
-27.6974
-26.6921
-24.6224
-21.6615
-18.9482
-16.568
-14.3236
-12.5568
-11.0765
-9.64825
-8.48831
-7.46063
-6.46639
-5.8281
-5.49967
-5.24982
-4.95571
-4.72675
-4.53038
-4.31951
-4.17494
-4.07137
-3.97195
-3.92404
-3.89599
-3.82112
-3.68345
-3.56316
-3.46036
-3.35609
-3.27969
-3.21647
-3.14809
-3.09377
-3.04352
-2.99033
-2.96209
-2.95622
-2.95466
-2.94751
-2.94266
-2.93743
-2.92841
-2.92245
-2.91762
-2.91122
-2.90793
-2.90487
-2.89574
-2.87925
-2.86371
-2.84901
-2.83324
-2.81999
-2.8079
-2.79593
-2.7881
-2.78429
-2.78333
-27.9445
-28.0625
-28.2821
-28.5548
-28.7628
-28.6488
-27.7402
-25.4594
-21.914
-18.9493
-16.4695
-14.0169
-12.2446
-10.8017
-9.28519
-8.14573
-7.12719
-6.01971
-5.40451
-5.18852
-5.01921
-4.72224
-4.52426
-4.35975
-4.13918
-4.01657
-3.9403
-3.84395
-3.8251
-3.8368
-3.77714
-3.61704
-3.49617
-3.40035
-3.2898
-3.22139
-3.16788
-3.09725
-3.04854
-3.00208
-2.94187
-2.91736
-2.92235
-2.92912
-2.92366
-2.92269
-2.92094
-2.9118
-2.90814
-2.90578
-2.89963
-2.89899
-2.8995
-2.89143
-2.87221
-2.85618
-2.84161
-2.82436
-2.81106
-2.79884
-2.78515
-2.77697
-2.77374
-2.77333
-28.2758
-28.4299
-28.728
-29.1331
-29.5381
-29.6684
-28.9313
-26.4334
-22.0763
-18.8838
-16.3711
-13.6301
-11.9005
-10.5486
-8.88627
-7.80137
-6.82016
-5.52496
-4.94452
-4.8844
-4.81606
-4.48544
-4.32602
-4.20418
-3.95331
-3.85876
-3.81766
-3.71093
-3.72632
-3.78999
-3.74888
-3.54821
-3.42868
-3.34496
-3.22065
-3.16361
-3.12375
-3.04565
-3.00499
-2.96434
-2.89064
-2.87054
-2.88972
-2.90639
-2.90026
-2.90372
-2.90621
-2.89519
-2.8943
-2.89501
-2.88781
-2.8903
-2.89556
-2.88887
-2.86506
-2.84879
-2.83493
-2.81535
-2.80239
-2.79039
-2.77412
-2.76564
-2.76334
-2.76369
-28.5732
-28.7631
-29.1409
-29.6863
-30.3145
-30.7531
-30.2919
-27.598
-22.0862
-18.7358
-16.3049
-13.1335
-11.5238
-10.345
-8.43245
-7.45891
-6.5655
-4.96218
-4.43921
-4.59442
-4.65454
-4.23762
-4.13174
-4.07151
-3.75601
-3.70113
-3.70853
-3.56845
-3.62584
-3.75841
-3.74187
-3.4723
-3.35969
-3.29706
-3.14612
-3.10623
-3.08635
-2.99165
-2.96337
-2.93239
-2.83497
-2.82086
-2.85884
-2.88754
-2.87672
-2.88573
-2.89383
-2.87807
-2.8809
-2.88572
-2.87532
-2.88168
-2.89332
-2.88859
-2.85731
-2.84146
-2.82928
-2.80595
-2.794
-2.78288
-2.76263
-2.75402
-2.75315
-2.75447
-28.8357
-29.0602
-29.5166
-30.206
-31.0791
-31.8944
-31.85
-29.0349
-21.8487
-18.4885
-16.3256
-12.4796
-11.114
-10.2338
-7.891
-7.12211
-6.40284
-4.30015
-3.87799
-4.32787
-4.55464
-3.96511
-3.94071
-3.97379
-3.53754
-3.54324
-3.62099
-3.40961
-3.52117
-3.74536
-3.76418
-3.38181
-3.28799
-3.26133
-3.06217
-3.04907
-3.05914
-2.93244
-2.92391
-2.90945
-2.77221
-2.76739
-2.8304
-2.87405
-2.85198
-2.86866
-2.88476
-2.85961
-2.86788
-2.87859
-2.8615
-2.87286
-2.89309
-2.8914
-2.84817
-2.83406
-2.82517
-2.79568
-2.7859
-2.77676
-2.75036
-2.742
-2.74322
-2.74576
-29.063
-29.3199
-29.8512
-30.6838
-31.8169
-33.0771
-33.632
-30.867
-21.2217
-18.126
-16.5206
-11.5945
-10.6707
-10.2802
-7.20855
-6.79471
-6.39173
-3.49096
-3.24954
-4.09622
-4.54454
-3.64548
-3.75201
-3.92938
-3.28238
-3.38467
-3.56747
-3.22391
-3.40926
-3.75446
-3.82756
-3.26513
-3.21238
-3.24517
-2.96243
-2.99197
-3.04742
-2.86348
-2.88679
-2.90034
-2.69832
-2.70913
-2.80523
-2.86804
-2.82429
-2.8524
-2.8804
-2.83847
-2.85517
-2.8747
-2.84531
-2.86351
-2.89519
-2.89844
-2.8364
-2.82645
-2.8234
-2.78382
-2.77809
-2.77273
-2.73677
-2.72946
-2.73363
-2.73764
-29.2556
-29.5417
-30.1423
-31.1119
-32.5105
-34.2767
-35.6562
-33.2782
-19.9954
-17.6357
-17.024
-10.3649
-10.1954
-10.5807
-6.30164
-6.48048
-6.61986
-2.46236
-2.54374
-3.9128
-4.66387
-3.24367
-3.56472
-3.96573
-2.96667
-3.22524
-3.56656
-2.99566
-3.28688
-3.78932
-3.94903
-3.1048
-3.13182
-3.25985
-2.83713
-2.93485
-3.05908
-2.77769
-2.85221
-2.91222
-2.60726
-2.64518
-2.78432
-2.87248
-2.79091
-2.83684
-2.8829
-2.81262
-2.84273
-2.87563
-2.82525
-2.85325
-2.89991
-2.91141
-2.82014
-2.81847
-2.82517
-2.76922
-2.77056
-2.77177
-2.72102
-2.7163
-2.72446
-2.73019
-29.4145
-29.7262
-30.388
-31.4836
-33.1417
-35.459
-37.9237
-36.5392
-17.8667
-17.0127
-18.0339
-8.62069
-9.69174
-11.276
-5.04426
-6.18335
-7.21388
-1.1074
-1.75518
-3.79158
-4.96813
-2.7071
-3.3785
-4.12296
-2.55465
-3.0654
-3.64544
-2.70184
-3.15121
-3.85278
-4.15311
-2.87518
-3.0458
-3.32199
-2.6717
-2.87781
-3.10566
-2.66445
-2.82036
-2.95544
-2.49009
-2.57502
-2.76873
-2.89152
-2.74778
-2.82189
-2.8954
-2.77905
-2.83051
-2.88373
-2.79913
-2.84172
-2.90745
-2.93274
-2.79669
-2.81005
-2.83227
-2.75018
-2.76329
-2.77533
-2.70188
-2.70245
-2.71583
-2.72348
-29.5411
-29.8742
-30.588
-31.7937
-33.6925
-36.5787
-40.4038
-41.0425
-14.4042
-16.2651
-19.8344
-6.11314
-9.16837
-12.5665
-3.25177
-5.9078
-8.35322
0.729422
-0.888704
-3.74472
-5.53446
-1.95923
-3.19441
-4.45839
-1.99413
-2.90681
-3.84275
-2.30921
-3.00102
-3.94575
-4.47463
-2.53954
-2.9549
-3.45545
-2.44483
-2.82139
-3.20366
-2.50826
-2.79145
-3.04475
-2.33385
-2.49902
-2.75941
-2.93098
-2.689
-2.80752
-2.92245
-2.73341
-2.81858
-2.90241
-2.76386
-2.82873
-2.91781
-2.96597
-2.76218
-2.80116
-2.84731
-2.72424
-2.75632
-2.78545
-2.67757
-2.68804
-2.70789
-2.7176
-29.6377
-29.9877
-30.743
-32.0391
-34.1468
-37.5815
-43.0132
-47.3475
-9.00534
-15.4232
-22.8219
-2.48634
-8.64204
-14.7314
-0.660996
-5.65961
-10.287
3.26997
0.0320938
-3.77848
-6.46914
-0.891778
-3.01603
-5.05215
-1.21073
-2.75323
-4.21221
-1.77063
-2.83854
-4.06535
-4.96256
-2.04633
-2.86149
-3.69363
-2.12616
-2.76684
-3.37619
-2.28712
-2.76588
-3.20065
-2.12014
-2.41912
-2.75693
-2.9989
-2.60626
-2.79392
-2.97046
-2.66956
-2.80713
-2.93643
-2.71511
-2.81438
-2.93064
-3.01607
-2.71129
-2.792
-2.87395
-2.68794
-2.74975
-2.80503
-2.64553
-2.6734
-2.70088
-2.71265
-29.7063
-30.0687
-30.8546
-32.219
-34.4918
-38.4072
-45.5872
-56.2367
-0.843109
-14.55
-27.5366
2.75687
-8.14234
-18.1525
3.09401
-5.44706
-13.3548
6.82488
0.952942
-3.88661
-7.91718
0.644959
-2.85112
-6.01377
-0.100859
-2.61174
-4.82683
-1.02039
-2.67211
-4.20221
-5.68471
-1.32463
-2.77079
-4.08213
-1.67344
-2.71666
-3.65493
-1.97056
-2.74432
-3.45121
-1.82327
-2.3399
-2.76097
-3.10633
-2.48822
-2.78158
-3.0483
-2.57907
-2.79666
-2.99239
-2.64695
-2.79943
-2.94495
-3.09009
-2.63673
-2.78309
-2.91732
-2.63657
-2.74384
-2.83807
-2.60227
-2.65936
-2.69511
-2.70877
-29.7495
-30.1199
-30.9257
-32.335
-34.7205
-38.9965
-47.8425
-68.7853
11.1981
-13.7564
-34.698
10.2955
-7.71805
-23.34
8.51036
-5.2826
-18.0104
11.821
1.77262
-4.04095
-10.0741
2.85339
-2.71369
-7.48981
1.47662
-2.49445
-5.78386
0.0314529
-2.52004
-4.33674
-6.73361
-0.278748
-2.69225
-4.68181
-1.0291
-2.67518
-4.08241
-1.51735
-2.72794
-3.83411
-1.4081
-2.26995
-2.76973
-3.26829
-2.31963
-2.77155
-3.168
-2.4506
-2.78814
-3.07924
-2.5514
-2.78567
-2.95887
-3.1977
-2.52882
-2.77543
-2.98438
-2.56382
-2.73914
-2.89005
-2.5431
-2.64739
-2.69102
-2.7062
-29.77
-30.1442
-30.9596
-32.3908
-34.8325
-39.3032
-49.3286
-86.4438
28.5973
-13.2192
-45.2436
21.0371
-7.44524
-30.9629
16.2489
-5.18494
-24.8491
18.8345
2.32208
-4.17808
-13.2002
6.0021
-2.62633
-9.67207
3.71037
-2.42028
-7.20973
1.5063
-2.41522
-4.43369
-8.2331
1.21857
-2.64073
-5.57178
-0.115947
-2.64888
-4.71404
-0.872367
-2.71821
-4.39844
-0.826838
-2.22318
-2.77841
-3.50443
-2.07997
-2.76514
-3.34502
-2.26868
-2.78266
-3.20829
-2.41739
-2.77595
-2.96866
-3.3516
-2.37438
-2.77029
-3.0839
-2.46092
-2.73611
-2.96775
-2.46128
-2.63947
-2.68874
-2.70474
)
;

boundaryField
{
    left
    {
        type            calculated;
        value           nonuniform List<scalar> 
32
(
-20.4407
-20.5171
-20.6624
-20.8682
-21.1277
-21.4343
-21.7822
-22.1659
-22.5797
-23.0184
-23.4766
-23.9488
-24.4294
-24.913
-25.394
-25.867
-26.3269
-26.7687
-27.1881
-27.5811
-27.9445
-28.2758
-28.5732
-28.8357
-29.063
-29.2556
-29.4145
-29.5411
-29.6377
-29.7063
-29.7495
-29.77
)
;
    }
    right
    {
        type            calculated;
        value           nonuniform List<scalar> 
32
(
-2.9416
-2.9399
-2.93669
-2.93216
-2.9265
-2.91988
-2.91243
-2.90429
-2.89557
-2.88636
-2.87675
-2.86683
-2.85664
-2.84626
-2.83576
-2.82517
-2.81457
-2.80402
-2.79358
-2.78333
-2.77333
-2.76369
-2.75447
-2.74576
-2.73764
-2.73019
-2.72348
-2.7176
-2.71265
-2.70877
-2.7062
-2.70474
)
;
    }
    interface
    {
        type            calculated;
        value           nonuniform List<scalar> 
64
(
-29.7748
-30.15
-30.9677
-32.4042
-34.8598
-39.3812
-49.8111
-96.7581
38.8465
-13.0416
-51.4946
27.338
-7.35819
-35.4776
20.7926
-5.15562
-28.8984
22.9281
2.50318
-4.23171
-15.0426
7.8497
-2.59859
-10.9668
5.0182
-2.39683
-8.05766
2.36687
-2.37979
-4.46719
-9.11314
2.0982
-2.62394
-6.10043
0.418867
-2.64047
-5.08869
-0.494054
-2.71518
-4.73287
-0.487802
-2.2077
-2.78187
-3.64379
-1.93942
-2.76299
-3.45
-2.16212
-2.7808
-3.28493
-2.33913
-2.77252
-2.9719
-3.44188
-2.28361
-2.76849
-3.14297
-2.40064
-2.73503
-3.01395
-2.41369
-2.63677
-2.688
-2.70421
)
;
    }
    bottom
    {
        type            calculated;
        value           nonuniform List<scalar> 
64
(
-20.4208
-20.3265
-20.139
-19.8606
-19.4947
-19.0465
-18.5227
-17.9317
-17.2831
-16.5882
-15.8585
-15.1061
-14.3427
-13.5792
-12.8256
-12.0903
-11.3804
-10.7014
-10.0574
-9.45111
-8.88394
-8.35631
-7.86776
-7.41716
-7.0029
-6.62301
-6.27532
-5.95757
-5.66746
-5.40277
-5.16136
-4.94127
-4.74067
-4.55791
-4.39149
-4.24007
-4.10245
-3.97751
-3.86424
-3.76172
-3.66907
-3.58546
-3.51014
-3.44236
-3.38144
-3.32673
-3.27762
-3.23355
-3.19401
-3.15855
-3.12674
-3.09824
-3.07272
-3.04994
-3.02966
-3.01173
-2.996
-2.98237
-2.97078
-2.96117
-2.9535
-2.94777
-2.94395
-2.94204
)
;
    }
    defaultFaces
    {
        type            empty;
    }
}


// ************************************************************************* //
