/*--------------------------------*- C++ -*----------------------------------*\
| =========                 |                                                 |
| \\      /  F ield         | OpenFOAM: The Open Source CFD Toolbox           |
|  \\    /   O peration     | Version:  5.x                                   |
|   \\  /    A nd           | Web:      www.OpenFOAM.org                      |
|    \\/     M anipulation  |                                                 |
\*---------------------------------------------------------------------------*/
FoamFile
{
    version     2.0;
    format      ascii;
    class       volScalarField;
    location    "9";
    object      gradTx;
}
// * * * * * * * * * * * * * * * * * * * * * * * * * * * * * * * * * * * * * //

dimensions      [0 -1 0 1 0 0 0];

internalField   nonuniform List<scalar> 
2048
(
0.0221973
0.0663449
0.109729
0.151773
0.191818
0.229135
0.262965
0.292579
0.317353
0.336837
0.3508
0.35925
0.362417
0.360719
0.354718
0.345065
0.332454
0.317582
0.301112
0.28365
0.265728
0.247788
0.230185
0.213189
0.196991
0.181714
0.167426
0.154147
0.141862
0.130524
0.120067
0.110413
0.10148
0.0931877
0.085464
0.0782465
0.0714848
0.0651399
0.0591831
0.0535944
0.0483609
0.0434739
0.0389276
0.0347167
0.0308349
0.027274
0.0240232
0.0210697
0.0183984
0.0159926
0.013835
0.0119072
0.010191
0.00866805
0.0073203
0.00613008
0.00508012
0.00415354
0.00333376
0.0026044
0.00194908
0.00135133
0.000794576
0.000262182
0.0658253
0.196765
0.325498
0.450334
0.56932
0.680269
0.780883
0.868944
0.942554
1.00034
1.04162
1.06641
1.07542
1.06994
1.05166
1.02255
0.984695
0.940178
0.890986
0.838927
0.785576
0.732248
0.679988
0.629584
0.581594
0.536376
0.49412
0.45488
0.418598
0.385134
0.354285
0.325814
0.299472
0.275018
0.252236
0.230941
0.210984
0.19225
0.174657
0.158146
0.142681
0.128239
0.114803
0.10236
0.0908912
0.0803729
0.0707736
0.0620547
0.0541711
0.0470736
0.0407099
0.0350261
0.0299677
0.0254804
0.0215107
0.0180063
0.0149162
0.0121907
0.00978081
0.00763816
0.00571446
0.00396098
0.00232832
0.000767995
0.108083
0.323149
0.534778
0.740262
0.93639
1.11949
1.28564
1.43103
1.55238
1.64733
1.7147
1.75458
1.76821
1.75783
1.72632
1.67702
1.61345
1.53908
1.45723
1.3709
1.28267
1.19471
1.10872
1.02594
0.947282
0.873287
0.804246
0.740222
0.681102
0.626633
0.576463
0.530186
0.487377
0.447633
0.41059
0.375946
0.343458
0.31294
0.284263
0.257336
0.232105
0.208537
0.186611
0.166309
0.147603
0.130456
0.114815
0.100616
0.0877857
0.0762411
0.0658961
0.0566617
0.0484482
0.0411664
0.0347289
0.0290502
0.0240469
0.019638
0.015744
0.0122864
0.0091866
0.00636496
0.00373934
0.00123253
0.149253
0.446383
0.739158
1.02398
1.29642
1.55123
1.78269
1.98517
2.15379
2.28509
2.37735
2.43079
2.44732
2.43024
2.38378
2.31275
2.22217
2.11697
2.00182
1.88091
1.75785
1.6356
1.51646
1.40213
1.29375
1.19204
1.09734
1.00969
0.92891
0.854596
0.786233
0.723221
0.664947
0.610831
0.560363
0.513121
0.468776
0.427082
0.387866
0.351016
0.316468
0.284189
0.254158
0.226359
0.200759
0.177308
0.155934
0.136547
0.119042
0.103305
0.0892139
0.076646
0.0654769
0.0555835
0.0468451
0.0391445
0.0323676
0.0264038
0.021145
0.0164842
0.0123144
0.00852672
0.00500607
0.00164879
0.189494
0.566983
0.939628
1.30313
1.65185
1.97885
2.27633
2.53648
2.75252
2.91964
3.03559
3.10079
3.118
3.09181
3.02802
2.93305
2.81351
2.67588
2.52623
2.36997
2.21173
2.05523
1.90334
1.75809
1.62085
1.49242
1.37315
1.26305
1.16179
1.06883
0.983446
0.904821
0.832124
0.764586
0.701546
0.642467
0.58694
0.534667
0.485444
0.439147
0.395711
0.355112
0.317343
0.282394
0.250233
0.220799
0.194
0.169718
0.147816
0.128145
0.11055
0.094873
0.0809553
0.0686406
0.0577761
0.0482139
0.0398108
0.0324285
0.0259321
0.0201882
0.0150635
0.0104211
0.0061135
0.00201197
0.228841
0.685109
1.13662
1.57861
2.0043
2.40485
2.76998
3.0892
3.35335
3.55604
3.6944
3.76923
3.78444
3.74621
3.66213
3.54042
3.38945
3.21731
3.03153
2.83879
2.64475
2.45386
2.26946
2.09386
1.92855
1.77436
1.63161
1.5002
1.37968
1.26931
1.16813
1.07505
0.989007
0.909018
0.834266
0.764105
0.698058
0.635785
0.577065
0.521771
0.46985
0.421299
0.376136
0.334368
0.295969
0.260867
0.228948
0.200063
0.174042
0.1507
0.129846
0.111287
0.094831
0.0802891
0.067477
0.0562171
0.0463388
0.0376781
0.0300753
0.0233729
0.017413
0.0120326
0.00705229
0.00231905
0.267216
0.800584
1.33004
1.85067
2.35463
2.83095
3.26632
3.64687
3.96043
4.19862
4.35799
4.43997
4.45
4.39625
4.2884
4.13671
3.9514
3.74228
3.51841
3.28781
3.05716
2.83162
2.61491
2.4095
2.21691
2.03792
1.87277
1.72122
1.58268
1.45617
1.34045
1.23412
1.13583
1.04437
0.958756
0.878251
0.802322
0.730605
0.66287
0.599001
0.538967
0.482803
0.430566
0.382291
0.337964
0.297502
0.260765
0.22757
0.197708
0.170955
0.147086
0.125873
0.107089
0.0905148
0.075934
0.0631407
0.0519383
0.0421393
0.0335619
0.0260267
0.0193532
0.0133538
0.00781775
0.00256848
0.304426
0.912903
1.51926
2.11889
2.70301
3.25821
3.76747
4.21254
4.5774
4.85122
5.02999
5.11618
5.1173
5.04402
4.90848
4.72318
4.5003
4.25142
3.98725
3.71721
3.44906
3.18859
2.93978
2.70515
2.48609
2.28327
2.09679
1.9263
1.77099
1.62965
1.50069
1.38235
1.27293
1.17097
1.07533
0.985196
0.899993
0.819355
0.743058
0.671002
0.603194
0.539722
0.480702
0.426213
0.376256
0.330736
0.28948
0.252265
0.218837
0.188933
0.16229
0.138647
0.117745
0.0993306
0.0831581
0.0689931
0.0566151
0.0458154
0.0363929
0.0281489
0.0208825
0.0143831
0.00840881
0.00275994
0.340173
1.02125
1.70318
2.38225
3.04895
3.68712
4.27508
4.78896
5.20765
5.51733
5.71355
5.80044
5.78832
5.69099
5.52346
5.30061
5.03668
4.74506
4.43818
4.12701
3.82042
3.52479
3.24418
2.98097
2.73632
2.51066
2.30395
2.11569
1.94489
1.79006
1.64922
1.52015
1.40074
1.28925
1.18439
1.08528
0.991378
0.902308
0.817866
0.737978
0.662699
0.592187
0.526644
0.466213
0.410914
0.360634
0.315157
0.274208
0.237485
0.204685
0.175505
0.149652
0.126836
0.106771
0.0891797
0.0738005
0.0603903
0.0487224
0.0385798
0.0297474
0.0220063
0.0151236
0.00882723
0.00289402
0.374063
1.12451
1.88021
2.6391
3.39129
4.11757
4.79045
5.37867
5.85442
6.20019
6.41143
6.49481
6.46446
6.33807
6.13392
5.86942
5.56081
5.22329
4.87112
4.51704
4.17112
3.8402
3.52824
3.23723
2.96792
2.72045
2.49459
2.28973
2.10473
1.9378
1.7865
1.64803
1.51976
1.39967
1.28634
1.1789
1.07681
0.979766
0.887565
0.800167
0.717677
0.640353
0.568514
0.502393
0.442031
0.387285
0.337882
0.293485
0.253735
0.218285
0.186799
0.158951
0.134419
0.112887
0.0940448
0.0776024
0.0632966
0.0508862
0.0401422
0.0308363
0.0227342
0.015582
0.00907695
0.00297208
0.405612
1.22131
2.04832
2.88719
3.72824
4.54894
5.3146
5.98418
6.52099
6.90294
7.12608
7.20087
7.14654
6.98561
6.73999
6.42966
6.07271
5.68602
5.28583
4.88699
4.50094
4.13481
3.79214
3.47425
3.18131
2.91308
2.66914
2.44882
2.25089
2.07331
1.91304
1.76653
1.63056
1.50277
1.38167
1.26644
1.15666
1.05205
0.952445
0.857824
0.768344
0.684387
0.606443
0.534864
0.469714
0.410798
0.357766
0.310202
0.267687
0.229828
0.196257
0.166618
0.140563
0.117743
0.0978111
0.0804492
0.0653757
0.0523398
0.0411052
0.0314343
0.02308
0.0157676
0.00916358
0.00299607
0.43427
1.31006
2.20507
3.12369
4.05733
4.98007
5.84832
6.60812
7.21076
7.62867
7.85963
7.91973
7.83485
7.63346
7.34145
6.98116
6.57228
6.13308
5.68196
5.23643
4.8096
4.4086
4.03611
3.69247
3.37703
3.08906
2.82806
2.59337
2.38378
2.19703
2.02939
1.8763
1.73375
1.59909
1.47084
1.34831
1.23126
1.11948
1.01281
0.911225
0.814932
0.724467
0.640564
0.563744
0.494082
0.431297
0.374935
0.324485
0.279458
0.23942
0.203973
0.172739
0.145347
0.121411
0.100545
0.0823988
0.0666756
0.0531214
0.041498
0.031563
0.0230592
0.0156914
0.00909401
0.0029684
0.459436
1.38898
2.34766
3.34521
4.3754
5.40919
6.39223
7.25337
7.9275
8.38047
8.61395
8.65199
8.52909
8.28101
7.93773
7.52357
7.05937
6.56427
6.05904
5.5648
5.09677
4.66161
4.26049
3.89243
3.55568
3.24901
2.97191
2.72385
2.5038
2.30944
2.13617
1.97801
1.82999
1.68923
1.55434
1.42492
1.30098
1.18238
1.06896
0.960659
0.857684
0.760769
0.671006
0.589152
0.515261
0.448917
0.389529
0.336469
0.289174
0.247174
0.210051
0.177408
0.148854
0.123971
0.10232
0.0835149
0.0672489
0.0532724
0.0413522
0.0312456
0.022689
0.015366
0.00887623
0.00289197
0.480489
1.4562
2.47303
3.5478
4.67853
5.8339
6.94682
7.9233
8.67544
9.16146
9.39055
9.39773
9.22837
8.92717
8.52797
8.05641
7.53391
6.97948
6.41652
5.8714
5.36209
4.89393
4.46571
4.07479
3.71803
3.3936
3.10125
2.8407
2.61132
2.41098
2.23399
2.0724
1.91997
1.77376
1.63265
1.49664
1.36613
1.24108
1.12121
1.00643
0.896858
0.793464
0.697886
0.611201
0.533385
0.463802
0.401698
0.346303
0.29697
0.253214
0.214599
0.180718
0.151173
0.125506
0.103214
0.0838653
0.0671505
0.0528358
0.0407005
0.0305063
0.0219873
0.0148047
0.00851919
0.00277004
0.496822
1.50984
2.57794
3.72707
4.96204
6.25102
7.51244
8.62194
9.45949
9.97475
10.1906
10.1565
9.93116
9.57041
9.11111
8.57912
7.99595
7.37873
6.75375
6.15534
5.60517
5.10576
4.65231
4.24034
3.86491
3.52357
3.21671
2.94438
2.70662
2.50203
2.32357
2.1603
2.00441
1.85329
1.70623
1.56379
1.42704
1.29587
1.16987
1.04886
0.932724
0.822713
0.721294
0.629997
0.54859
0.476106
0.411603
0.354142
0.302987
0.257662
0.217726
0.182764
0.152389
0.126102
0.103309
0.0835203
0.0664365
0.0518553
0.0395757
0.0293685
0.0209717
0.0140216
0.00803281
0.00260637
0.507872
1.5481
2.6591
3.8782
5.22037
6.65642
8.08924
9.35434
10.2855
10.8233
11.0147
10.9273
10.6352
10.2088
9.68593
9.09107
8.44584
7.76236
7.06994
6.41544
5.82562
5.29746
4.82094
4.39
3.99732
3.6397
3.31897
3.03535
2.78991
2.58292
2.40564
2.2426
2.08404
1.92838
1.7755
1.62667
1.48396
1.34705
1.21522
1.08828
0.965579
0.848655
0.741289
0.645635
0.561024
0.485989
0.419414
0.36015
0.307364
0.260644
0.219542
0.183637
0.152588
0.125848
0.102691
0.0825519
0.0651626
0.0503739
0.0380105
0.0278552
0.0196594
0.0130315
0.00742814
0.00240519
0.513163
1.56937
2.71333
3.99611
5.4471
7.0448
8.67708
10.1269
11.1604
11.7096
11.8631
11.7087
11.3376
10.8402
10.2512
9.59153
8.88433
8.13115
7.36411
6.65019
6.02309
5.46961
4.97233
4.52486
4.11635
3.74278
3.40872
3.11409
2.86125
2.65386
2.48104
2.32035
2.15956
1.99958
1.84086
1.68547
1.53714
1.3949
1.25754
1.12506
0.995753
0.8714
0.757881
0.658205
0.570847
0.493613
0.425305
0.364498
0.31024
0.262285
0.220157
0.183425
0.151847
0.124832
0.101449
0.0810323
0.0633828
0.0484331
0.0360364
0.0259873
0.0180659
0.0118497
0.00671764
0.00217136
0.512339
1.57235
2.73775
4.0756
5.6349
7.40936
9.27528
10.9481
12.0928
12.6354
12.7352
12.4988
12.0341
11.462
10.8057
10.0795
9.31273
8.48656
7.63491
6.85751
6.19737
5.62312
5.10726
4.6461
4.22328
3.83354
3.48676
3.18111
2.92048
2.71487
2.55074
2.39472
2.23162
2.06743
1.90271
1.74032
1.58679
1.4397
1.29704
1.15962
1.02363
0.891011
0.771015
0.667794
0.578243
0.499142
0.429459
0.367363
0.311748
0.262703
0.219681
0.182205
0.150239
0.123143
0.0996756
0.079033
0.0611476
0.0460726
0.0336845
0.0237836
0.0162052
0.0104927
0.00591554
0.00191047
0.505191
1.55613
2.72991
4.11158
5.77558
7.74143
9.88225
11.8288
13.0932
13.6008
13.63
13.2957
12.7197
12.0719
11.3486
10.5535
9.73313
8.83102
7.88045
7.03456
6.3485
5.75935
5.22641
4.75512
4.31954
3.91256
3.55395
3.23708
2.96718
2.7657
2.61593
2.46712
2.30073
2.13241
1.96145
1.79116
1.63311
1.48174
1.33388
1.1924
1.04969
0.907486
0.780545
0.674495
0.583428
0.502731
0.432062
0.368935
0.312003
0.262017
0.218224
0.180043
0.147822
0.120873
0.09747
0.0766235
0.0585028
0.0433298
0.0309854
0.0212601
0.0140881
0.00897796
0.00503832
0.0016289
0.491687
1.52029
2.68803
4.0993
5.86018
8.03007
10.4948
12.7838
14.1751
14.6031
14.5457
14.0977
13.3871
12.6677
11.8796
11.0109
10.1487
9.16844
8.09793
7.17743
6.47699
5.88034
5.33014
4.85346
4.40687
3.98013
3.6113
3.28282
3.00052
2.80577
2.67811
2.53926
2.36713
2.19499
2.0175
1.83776
1.67631
1.52136
1.36806
1.22396
1.07452
0.920719
0.786209
0.678428
0.586675
0.504508
0.433306
0.369418
0.311102
0.26034
0.215906
0.176991
0.144642
0.118118
0.0949391
0.0738694
0.055487
0.0402393
0.0279707
0.0184289
0.0117216
0.00732512
0.00410528
0.00133401
0.471978
1.46497
2.61116
4.03471
5.87922
8.2615
11.1071
13.8328
15.3553
15.635
15.4805
14.9042
14.0267
13.2477
12.3995
11.4473
10.5639
9.50476
8.28322
7.28078
6.58418
5.98901
5.41823
4.94296
4.48738
4.03599
3.66005
3.31959
3.01917
2.83395
2.73926
2.61329
2.43063
2.25565
2.07144
1.87957
1.71663
1.55901
1.39935
1.25495
1.09893
0.930461
0.787587
0.679769
0.588334
0.504554
0.433393
0.36904
0.309099
0.257781
0.212857
0.173081
0.140721
0.114978
0.0922009
0.0708303
0.0521298
0.0368336
0.0246747
0.0152977
0.00910766
0.00555661
0.00313909
0.0010341
0.446397
1.39087
2.49929
3.91475
5.82307
8.41877
11.7092
15.0023
16.6558
16.6817
16.4326
15.7172
14.6246
13.812
12.9111
11.8552
10.9852
9.84882
8.43012
7.33733
6.67264
6.08955
5.48926
5.02582
4.56379
4.07897
3.70175
3.34921
3.02107
2.84837
2.80207
2.69191
2.49031
2.31493
2.12409
1.91555
1.75446
1.5953
1.42716
1.2862
1.124
0.936239
0.784063
0.67879
0.588864
0.502857
0.432537
0.368071
0.305994
0.254453
0.209232
0.168317
0.136059
0.111566
0.0893888
0.0675554
0.0484497
0.0331431
0.0211369
0.0118681
0.00624098
0.00369927
0.00216626
0.000738402
0.415451
1.29926
2.35349
3.73772
5.68245
8.48132
12.2846
16.328
18.1051
17.7175
17.4021
16.5424
15.161
14.3628
13.4199
12.2216
11.4219
10.2135
8.52938
7.33728
6.74693
6.18787
5.53987
5.10488
4.63974
4.10647
3.73852
3.37445
3.00323
2.84618
2.87021
2.77866
2.54405
2.37358
2.17668
1.94395
1.79039
1.63114
1.45032
1.31877
1.15121
0.937267
0.774766
0.675916
0.588878
0.499254
0.430981
0.366846
0.301694
0.250473
0.205223
0.162668
0.130621
0.108012
0.086657
0.0640795
0.044451
0.029197
0.0174058
0.00813413
0.00310699
0.00178644
0.00121747
0.000456852
0.379794
1.19195
2.1759
3.50364
5.44921
8.42502
12.807
17.8578
19.7414
18.6996
18.3922
17.3917
15.6065
14.9063
13.936
12.526
11.8866
10.6173
8.5674
7.26765
6.81435
6.29218
5.56365
5.18396
4.72025
4.11365
3.77323
3.39942
2.96142
2.82316
2.94874
2.87816
2.58803
2.43272
2.23111
1.96197
1.82542
1.66791
1.46678
1.35409
1.1826
0.932305
0.758521
0.671806
0.589192
0.493344
0.429017
0.365796
0.295973
0.245979
0.20108
0.156052
0.124331
0.104469
0.0841867
0.060415
0.0401222
0.0250235
0.0135442
0.00407922
-0.000321247
-0.000139012
0.000327566
0.000199757
0.34019
1.07115
1.96972
3.21449
5.11722
8.22252
13.2359
19.6555
21.6153
19.5611
19.4122
18.2869
15.9178
15.4545
14.4761
12.7356
12.3976
11.086
8.52444
7.11158
6.8861
6.41375
5.5495
5.26848
4.81235
4.09237
3.80995
3.43009
2.88974
2.77325
3.04457
2.99653
2.61584
2.49418
2.2903
1.96518
1.86113
1.70769
1.47317
1.39408
1.22095
0.919473
0.733785
0.667445
0.590894
0.484363
0.427024
0.365492
0.288408
0.241146
0.197134
0.148318
0.117065
0.101127
0.082194
0.0565431
0.0354346
0.0206505
0.00963565
-0.000326953
-0.00408672
-0.00202033
-0.000465036
-2.27739e-05
0.297478
0.93942
1.73908
2.87438
4.68348
7.84439
13.5101
21.8058
23.7955
20.2007
20.482
19.2632
16.0312
16.0285
15.0662
12.8004
12.9805
11.655
8.37231
6.84752
6.97858
6.56789
5.47959
5.36622
4.92593
4.02972
3.85448
3.47493
2.78021
2.68803
3.16709
3.14188
2.61739
2.5609
2.35862
1.94688
1.90006
1.75357
1.46426
1.44142
1.27004
0.896008
0.698595
0.664266
0.59542
0.471022
0.425527
0.366707
0.278293
0.236212
0.193827
0.139226
0.108637
0.098221
0.0809385
0.0524016
0.0303412
0.0161051
0.00579314
-0.00513315
-0.00825307
-0.00378111
-0.00111953
-0.000201539
0.252524
0.7995
1.48883
2.48957
4.14919
7.26134
13.5397
24.4197
26.374
20.4697
21.6377
20.3749
15.8541
16.6623
15.7457
12.6462
13.6709
12.3722
8.07141
6.44862
7.11492
6.7752
5.32654
5.4886
5.07486
3.90606
3.91514
3.54568
2.6222
2.55603
3.32884
3.32502
2.5775
2.6376
2.44248
1.89712
1.9461
1.81007
1.43218
1.49983
1.3349
0.857955
0.65053
0.664281
0.604661
0.451291
0.425278
0.370488
0.264524
0.231523
0.191747
0.128408
0.0987959
0.0960504
0.0807336
0.0478685
0.0247797
0.0114126
0.00216955
-0.0104125
-0.01291
-0.00531751
-0.00159499
-0.000329029
0.206186
0.654186
1.22435
2.06833
3.52082
6.44782
13.196
27.6408
29.4751
20.1551
22.9393
21.7013
15.2539
17.4078
16.572
12.1652
14.519
13.3007
7.56715
5.8821
7.32663
7.0631
5.04995
5.65218
5.27832
3.69259
4.00375
3.65813
2.40179
2.36197
3.5463
3.56028
2.47405
2.73158
2.55099
1.80149
2.00509
1.88366
1.36548
1.57449
1.42215
0.799776
0.586689
0.670232
0.621078
0.422127
0.427369
0.378242
0.245458
0.22759
0.191664
0.115336
0.0872146
0.0949919
0.0819567
0.042743
0.0186761
0.00659311
-0.00102909
-0.01627
-0.0181797
-0.00648835
-0.00185378
-0.000400153
0.159273
0.506191
0.951185
1.62054
2.81091
5.38737
12.2983
31.6534
33.2652
18.9594
24.4814
23.3548
14.044
18.3418
17.6261
11.2055
15.5941
14.5224
6.78564
5.10897
7.65536
7.46776
4.5921
5.88077
5.56248
3.3482
4.13704
3.83299
2.10108
2.0859
3.84078
3.86659
2.27578
2.85384
2.69682
1.63957
2.08554
1.98337
1.24793
1.67261
1.54034
0.713881
0.503713
0.685736
0.647851
0.379141
0.433393
0.391843
0.21873
0.225166
0.194572
0.0992713
0.073487
0.0955192
0.0850618
0.0367213
0.011954
0.00165591
-0.00352788
-0.0228514
-0.0242243
-0.00710258
-0.00186658
-0.000412666
0.112518
0.358037
0.674791
1.1571
2.03834
4.08027
10.5985
36.6901
37.9657
16.4755
26.4055
25.4893
11.9671
19.5738
19.0199
9.55699
16.9914
16.1413
5.62859
4.08415
8.15455
8.03646
3.87274
6.20801
5.96239
2.81585
4.33838
4.09674
1.69746
1.70223
4.23929
4.26879
1.93956
3.02045
2.89713
1.3831
2.19953
2.12152
1.05708
1.80409
1.70029
0.590072
0.397852
0.715432
0.689056
0.316197
0.445632
0.413741
0.181028
0.225354
0.201726
0.0792077
0.0571279
0.0982204
0.0905918
0.0293682
0.00454803
-0.00340982
-0.00496438
-0.030354
-0.0312538
-0.00690422
-0.00161917
-0.000367035
0.0665581
0.211959
0.400245
0.689278
1.22779
2.55359
7.76303
43.0407
43.868
12.1578
28.9161
28.3099
8.67466
21.2565
20.9035
6.93591
18.8397
18.2867
3.96771
2.75703
8.89085
8.8304
2.78304
6.68049
6.52415
2.01813
4.63999
4.48235
1.16287
1.17879
4.77539
4.79923
1.4072
3.25423
3.17466
0.993759
2.36383
2.31462
0.762585
1.98243
1.91545
0.414917
0.265103
0.765094
0.749875
0.224944
0.467312
0.447095
0.127841
0.229737
0.21468
0.0538089
0.0375788
0.103816
0.0991924
0.0200843
-0.00357634
-0.00864872
-0.00486688
-0.0390392
-0.039535
-0.00555433
-0.00112126
-0.000265397
0.0219234
0.0698443
0.132009
0.22781
0.408188
0.87412
3.35168
51.0612
51.3517
5.28876
32.2985
32.0828
3.70491
23.5968
23.4744
2.96687
21.3114
21.1166
1.6384
1.07273
9.94513
9.92808
1.17879
7.36148
7.30724
0.85232
5.08554
5.02984
0.463086
0.475806
5.49002
5.49958
0.601936
3.5867
3.55883
0.420686
2.60119
2.58422
0.324246
2.2257
2.20224
0.171046
0.101419
0.84171
0.836843
0.09429
0.502886
0.495889
0.0531591
0.240538
0.235307
0.0213384
0.0142215
0.113171
0.111626
0.00806905
-0.0123964
-0.0141582
-0.00262963
-0.0492463
-0.0494009
-0.00261054
-0.000417602
-0.000109262
)
;

boundaryField
{
    left
    {
        type            calculated;
        value           uniform 0;
    }
    right
    {
        type            calculated;
        value           uniform 0;
    }
    interface
    {
        type            calculated;
        value           nonuniform List<scalar> 
64
(
0.0219234
0.0698443
0.132009
0.22781
0.408188
0.87412
3.35168
51.0612
51.3517
5.28876
32.2985
32.0828
3.70491
23.5968
23.4744
2.96687
21.3114
21.1166
1.6384
1.07273
9.94513
9.92808
1.17879
7.36148
7.30724
0.85232
5.08554
5.02984
0.463086
0.475806
5.49002
5.49958
0.601936
3.5867
3.55883
0.420686
2.60119
2.58422
0.324246
2.2257
2.20224
0.171046
0.101419
0.84171
0.836843
0.09429
0.502886
0.495889
0.0531591
0.240538
0.235307
0.0213384
0.0142215
0.113171
0.111626
0.00806905
-0.0123964
-0.0141582
-0.00262963
-0.0492463
-0.0494009
-0.00261054
-0.000417602
-0.000109262
)
;
    }
    bottom
    {
        type            calculated;
        value           nonuniform List<scalar> 
64
(
0.0221973
0.0663449
0.109729
0.151773
0.191818
0.229135
0.262965
0.292579
0.317353
0.336837
0.3508
0.35925
0.362417
0.360719
0.354718
0.345065
0.332454
0.317582
0.301112
0.28365
0.265728
0.247788
0.230185
0.213189
0.196991
0.181714
0.167426
0.154147
0.141862
0.130524
0.120067
0.110413
0.10148
0.0931877
0.085464
0.0782465
0.0714848
0.0651399
0.0591831
0.0535944
0.0483609
0.0434739
0.0389276
0.0347167
0.0308349
0.027274
0.0240232
0.0210697
0.0183984
0.0159926
0.013835
0.0119072
0.010191
0.00866805
0.0073203
0.00613008
0.00508012
0.00415354
0.00333376
0.0026044
0.00194908
0.00135133
0.000794576
0.000262182
)
;
    }
    defaultFaces
    {
        type            empty;
    }
}


// ************************************************************************* //
