/*--------------------------------*- C++ -*----------------------------------*\
| =========                 |                                                 |
| \\      /  F ield         | OpenFOAM: The Open Source CFD Toolbox           |
|  \\    /   O peration     | Version:  5.x                                   |
|   \\  /    A nd           | Web:      www.OpenFOAM.org                      |
|    \\/     M anipulation  |                                                 |
\*---------------------------------------------------------------------------*/
FoamFile
{
    version     2.0;
    format      ascii;
    class       volScalarField;
    location    "9";
    object      gradTy;
}
// * * * * * * * * * * * * * * * * * * * * * * * * * * * * * * * * * * * * * //

dimensions      [0 -1 0 1 0 0 0];

internalField   nonuniform List<scalar> 
2048
(
-20.159
-20.0622
-19.8697
-19.5837
-19.2077
-18.7468
-18.2078
-17.5991
-16.9307
-16.2138
-15.4605
-14.6829
-13.893
-13.102
-12.3199
-11.5557
-10.8163
-10.1075
-9.43339
-8.79679
-8.19915
-7.64091
-7.12164
-6.64021
-6.19504
-5.7842
-5.40554
-5.05686
-4.73594
-4.44066
-4.169
-3.91913
-3.68939
-3.47831
-3.28457
-3.10702
-2.94463
-2.79646
-2.66165
-2.53937
-2.42885
-2.32933
-2.24006
-2.16031
-2.08935
-2.02648
-1.971
-1.92226
-1.87961
-1.84247
-1.81027
-1.7825
-1.75867
-1.73835
-1.72113
-1.70665
-1.6946
-1.68467
-1.67663
-1.67025
-1.66537
-1.66183
-1.65953
-1.65839
-20.2373
-20.1397
-19.9454
-19.6565
-19.2764
-18.81
-18.2642
-17.6474
-16.9699
-16.2434
-15.4801
-14.6928
-13.8938
-13.0947
-12.3056
-11.5355
-10.7915
-10.0794
-9.40307
-8.76526
-8.16727
-7.60939
-7.09101
-6.61088
-6.16727
-5.75814
-5.38128
-5.03439
-4.7152
-4.42154
-4.15137
-3.90284
-3.67429
-3.46426
-3.27146
-3.09475
-2.93312
-2.78564
-2.65148
-2.52984
-2.41993
-2.32101
-2.23234
-2.15317
-2.08279
-2.02047
-1.96553
-1.91729
-1.87513
-1.83844
-1.80667
-1.77928
-1.75581
-1.73581
-1.71888
-1.70467
-1.69284
-1.68312
-1.67525
-1.66902
-1.66425
-1.66079
-1.65855
-1.65745
-20.3861
-20.2869
-20.0893
-19.7951
-19.4073
-18.9306
-18.3718
-17.7395
-17.0446
-16.2993
-15.517
-14.7112
-13.8949
-13.0801
-12.2776
-11.4964
-10.7438
-10.0254
-9.34496
-8.70497
-8.10644
-7.54934
-7.03276
-6.55517
-6.1146
-5.7088
-5.33538
-4.99191
-4.67602
-4.38545
-4.1181
-3.87211
-3.64581
-3.43777
-3.24672
-3.07157
-2.91136
-2.7652
-2.63228
-2.51182
-2.40307
-2.30528
-2.21774
-2.13968
-2.07038
-2.00912
-1.95519
-1.90793
-1.86668
-1.83085
-1.79987
-1.77322
-1.75042
-1.73103
-1.71465
-1.70093
-1.68954
-1.6802
-1.67265
-1.6667
-1.66215
-1.65886
-1.65672
-1.65568
-20.597
-20.4958
-20.2938
-19.9924
-19.594
-19.1028
-18.5254
-17.8709
-17.1508
-16.3785
-15.5687
-14.736
-13.8948
-13.0577
-12.2361
-11.4393
-10.6746
-9.94745
-9.26145
-8.61863
-8.01961
-7.46388
-6.95008
-6.47628
-6.04016
-5.63919
-5.27074
-4.93219
-4.62102
-4.33484
-4.0715
-3.82908
-3.60593
-3.40065
-3.21204
-3.03906
-2.88082
-2.73647
-2.60526
-2.48646
-2.37932
-2.28314
-2.19718
-2.12069
-2.05293
-1.99316
-1.94068
-1.89478
-1.85482
-1.82019
-1.79034
-1.76472
-1.74287
-1.72434
-1.70874
-1.69571
-1.68493
-1.67613
-1.66905
-1.66348
-1.65924
-1.65618
-1.6542
-1.65323
-20.8627
-20.7592
-20.5523
-20.2425
-19.8312
-19.322
-18.7211
-18.0381
-17.2854
-16.4781
-15.6325
-14.7653
-13.892
-13.0266
-12.1809
-11.3644
-10.5847
-9.8469
-9.15429
-8.50837
-7.90919
-7.35562
-6.8457
-6.37699
-5.94673
-5.55203
-5.18999
-4.85774
-4.55258
-4.27197
-4.01366
-3.7757
-3.55646
-3.35458
-3.16895
-2.99863
-2.84279
-2.70067
-2.57157
-2.4548
-2.34967
-2.25548
-2.1715
-2.09698
-2.03116
-1.97328
-1.9226
-1.87842
-1.84008
-1.80697
-1.77851
-1.75419
-1.73351
-1.71606
-1.70143
-1.68926
-1.67926
-1.67112
-1.66462
-1.65953
-1.65567
-1.65291
-1.65112
-1.65025
-21.1767
-21.071
-20.8591
-20.5402
-20.1146
-19.5846
-18.9558
-18.2382
-17.4456
-16.5953
-15.7061
-14.7968
-13.8849
-12.9854
-12.1111
-11.2717
-10.4745
-9.72465
-9.02482
-8.37592
-7.77723
-7.22683
-6.72204
-6.25978
-5.83679
-5.44977
-5.0955
-4.77086
-4.47291
-4.19893
-3.94656
-3.71382
-3.49908
-3.30111
-3.11888
-2.95157
-2.79846
-2.65888
-2.53219
-2.41777
-2.31496
-2.2231
-2.14146
-2.06926
-2.00573
-1.95007
-1.90152
-1.85937
-1.82293
-1.7916
-1.76478
-1.74197
-1.72268
-1.70648
-1.69298
-1.68183
-1.67271
-1.66536
-1.65953
-1.655
-1.65161
-1.64918
-1.64763
-1.64687
-21.5329
-21.4254
-21.209
-20.8814
-20.4408
-19.8878
-19.2272
-18.4691
-17.6294
-16.7281
-15.7872
-14.8284
-13.8715
-12.9329
-12.0259
-11.1606
-10.3442
-9.58129
-8.8741
-8.22272
-7.6255
-7.07955
-6.58129
-6.12692
-5.71261
-5.33464
-4.98946
-4.67365
-4.38401
-4.11763
-3.872
-3.64508
-3.43533
-3.24161
-3.06308
-2.89904
-2.74889
-2.61207
-2.48802
-2.37619
-2.27597
-2.18671
-2.1077
-2.03814
-1.97721
-1.92409
-1.87796
-1.8381
-1.80381
-1.77448
-1.74951
-1.7284
-1.71066
-1.69587
-1.68363
-1.67361
-1.66549
-1.65902
-1.65395
-1.65006
-1.64717
-1.64514
-1.64384
-1.64321
-21.9255
-21.817
-21.5974
-21.2623
-20.8071
-20.2298
-19.5338
-18.7294
-17.8349
-16.8742
-15.8733
-14.8578
-13.8499
-12.8674
-11.9244
-11.0309
-10.1938
-9.4173
-8.703
-8.05005
-7.45562
-6.91563
-6.42546
-5.98048
-5.57626
-5.20868
-4.87382
-4.568
-4.28772
-4.02982
-3.79161
-3.57101
-3.36658
-3.17736
-3.00269
-2.84206
-2.69502
-2.56112
-2.43987
-2.33079
-2.23335
-2.14694
-2.07083
-2.0042
-1.94616
-1.89583
-1.85238
-1.81504
-1.78311
-1.75597
-1.73303
-1.71377
-1.69772
-1.68445
-1.67359
-1.6648
-1.65777
-1.65226
-1.64801
-1.64482
-1.64249
-1.64088
-1.63987
-1.63939
-22.3489
-22.2407
-22.02
-21.6796
-21.2112
-20.6093
-19.8747
-19.0181
-18.0607
-17.0316
-15.9623
-14.8827
-13.8179
-12.7875
-11.8055
-10.8819
-10.0232
-9.233
-8.51228
-7.85906
-7.2691
-6.73685
-6.25645
-5.8224
-5.42966
-5.07372
-4.75038
-4.45564
-4.18572
-3.93712
-3.70692
-3.49301
-3.29409
-3.10945
-2.9387
-2.78155
-2.63769
-2.50677
-2.38841
-2.28221
-2.18771
-2.10433
-2.03136
-1.96791
-1.91302
-1.86574
-1.82519
-1.79057
-1.76118
-1.73638
-1.71561
-1.69833
-1.68409
-1.67245
-1.66305
-1.65556
-1.6497
-1.6452
-1.64184
-1.63939
-1.63768
-1.63653
-1.63582
-1.63549
-22.7977
-22.6913
-22.4725
-22.1303
-21.6517
-21.0258
-20.2501
-19.3349
-18.3057
-17.1983
-16.0516
-14.9005
-13.7736
-12.6915
-11.6682
-10.7132
-9.83233
-9.02873
-8.30262
-7.65086
-7.06741
-6.5449
-6.07609
-5.6545
-5.27457
-4.93147
-4.62075
-4.33815
-4.07953
-3.841
-3.61933
-3.41234
-3.21898
-3.03889
-2.872
-2.71829
-2.57761
-2.4497
-2.33428
-2.23101
-2.13954
-2.05936
-1.98975
-1.92973
-1.87824
-1.83423
-1.79677
-1.76504
-1.73832
-1.716
-1.69751
-1.68232
-1.66997
-1.66005
-1.65218
-1.64605
-1.6414
-1.63797
-1.63554
-1.63389
-1.63282
-1.63216
-1.63178
-1.63162
-23.2662
-23.1639
-22.9509
-22.6118
-22.1272
-21.4794
-20.6604
-19.68
-18.5688
-17.3724
-16.1386
-14.9088
-13.7147
-12.5779
-11.5117
-10.5245
-9.62132
-8.80478
-8.07466
-7.42651
-6.852
-6.34148
-5.88612
-5.47852
-5.11262
-4.78344
-4.48637
-4.21691
-3.97053
-3.74283
-3.5301
-3.33013
-3.14222
-2.9665
-2.80333
-2.65296
-2.51542
-2.3905
-2.278
-2.17768
-2.08929
-2.01243
-1.94639
-1.89005
-1.84218
-1.80165
-1.76745
-1.73874
-1.71482
-1.69508
-1.67895
-1.66594
-1.65556
-1.6474
-1.64111
-1.63639
-1.63299
-1.63067
-1.62921
-1.62839
-1.62799
-1.62785
-1.62782
-1.62782
-23.7488
-23.6533
-23.4511
-23.1215
-22.6371
-21.971
-21.1073
-20.054
-18.8492
-17.5515
-16.2205
-14.9046
-13.6392
-12.4456
-11.3354
-10.3157
-9.39029
-8.56143
-7.82899
-7.18708
-6.62437
-6.12828
-5.6883
-5.29612
-4.94532
-4.631
-4.34852
-4.09314
-3.85995
-3.64385
-3.44045
-3.24742
-3.06467
-2.89302
-2.73331
-2.58615
-2.45166
-2.32968
-2.22004
-2.12263
-2.03731
-1.96389
-1.90162
-1.84921
-1.80521
-1.76834
-1.73753
-1.71195
-1.69091
-1.67382
-1.66014
-1.64935
-1.641
-1.63466
-1.62997
-1.62668
-1.62455
-1.62338
-1.62292
-1.62296
-1.62327
-1.62367
-1.624
-1.62418
-24.2401
-24.1543
-23.9688
-23.6566
-23.1808
-22.5019
-21.593
-20.4585
-19.146
-17.7332
-16.2942
-14.8851
-13.5448
-12.2933
-11.1389
-10.0869
-9.13955
-8.29895
-7.56609
-6.93365
-6.38608
-5.90704
-5.48434
-5.10887
-4.77404
-4.47536
-4.20831
-3.9679
-3.74891
-3.54526
-3.35147
-3.16512
-2.98707
-2.81905
-2.66245
-2.51832
-2.38681
-2.26768
-2.16083
-2.06623
-1.98392
-1.91401
-1.85575
-1.80755
-1.76763
-1.73458
-1.7073
-1.68491
-1.66681
-1.65242
-1.64123
-1.63273
-1.62644
-1.62194
-1.61887
-1.61701
-1.61618
-1.61616
-1.61673
-1.61766
-1.61871
-1.61967
-1.62037
-1.62074
-24.7342
-24.6617
-24.4997
-24.2147
-23.758
-23.0746
-22.1211
-20.8955
-19.4583
-17.9145
-16.3562
-14.8472
-13.4296
-12.1202
-10.9221
-9.83848
-8.86963
-8.01752
-7.28633
-6.66731
-6.13882
-5.67952
-5.27591
-4.91831
-4.60002
-4.31758
-4.06668
-3.84207
-3.63836
-3.44816
-3.26426
-3.08405
-2.91002
-2.74507
-2.59117
-2.44988
-2.32129
-2.2049
-2.10074
-2.0088
-1.92936
-1.863
-1.80903
-1.76535
-1.72974
-1.70066
-1.67697
-1.65783
-1.64269
-1.63104
-1.62236
-1.61618
-1.612
-1.60935
-1.60789
-1.60746
-1.60791
-1.60907
-1.61069
-1.61254
-1.61436
-1.6159
-1.61699
-1.61754
-25.2255
-25.1701
-25.0393
-24.7927
-24.3686
-23.6919
-22.6963
-21.3679
-19.7844
-18.0916
-16.403
-14.7873
-13.2915
-11.926
-10.6852
-9.5713
-8.58136
-7.71718
-6.98985
-6.38921
-5.88446
-5.44753
-5.06469
-4.72588
-4.42432
-4.15852
-3.92443
-3.71633
-3.52913
-3.35365
-3.17988
-3.00491
-2.83398
-2.67145
-2.51973
-2.38114
-2.25547
-2.14169
-2.0401
-1.95064
-1.87378
-1.81101
-1.76168
-1.7229
-1.6918
-1.66681
-1.64678
-1.63087
-1.6187
-1.60981
-1.60366
-1.59982
-1.59777
-1.59699
-1.59711
-1.59808
-1.59981
-1.60215
-1.60484
-1.60764
-1.61025
-1.61239
-1.61387
-1.61461
-25.7086
-25.6741
-25.5828
-25.3874
-25.0122
-24.3573
-23.3248
-21.8798
-20.1221
-18.2601
-16.4306
-14.7019
-13.1288
-11.7108
-10.4286
-9.28653
-8.27596
-7.39768
-6.67642
-6.1006
-5.62516
-5.21286
-4.85226
-4.53304
-4.24785
-3.99892
-3.78225
-3.59114
-3.42189
-3.26284
-3.09945
-2.92826
-2.75926
-2.59849
-2.4483
-2.31234
-2.1897
-2.07835
-1.97924
-1.89204
-1.81729
-1.75811
-1.7139
-1.68046
-1.65405
-1.63325
-1.61692
-1.6042
-1.59498
-1.58884
-1.58521
-1.58373
-1.58385
-1.58493
-1.58659
-1.58891
-1.59191
-1.59543
-1.59921
-1.60298
-1.60642
-1.60917
-1.61105
-1.61197
-26.1781
-26.1685
-26.1251
-25.9951
-25.688
-25.0751
-24.0146
-22.4367
-20.4676
-18.4143
-16.4354
-14.5866
-12.9398
-11.4756
-10.153
-8.98578
-7.95531
-7.05827
-6.34532
-5.8029
-5.3635
-4.97725
-4.64015
-4.34125
-4.07124
-3.83931
-3.64074
-3.46671
-3.31713
-3.17691
-3.02417
-2.85448
-2.68603
-2.52642
-2.37693
-2.24366
-2.12436
-2.01512
-1.91846
-1.83329
-1.75991
-1.70429
-1.66586
-1.63835
-1.61673
-1.60017
-1.58758
-1.57792
-1.57161
-1.56824
-1.56709
-1.56798
-1.57032
-1.57325
-1.57637
-1.57998
-1.58422
-1.58894
-1.59381
-1.59858
-1.60288
-1.60627
-1.60854
-1.60964
-26.6292
-26.6481
-26.661
-26.6112
-26.3947
-25.8497
-24.7762
-23.0463
-20.8149
-18.5473
-16.4142
-14.4367
-12.723
-11.2228
-9.8588
-8.67111
-7.62226
-6.69739
-5.99508
-5.49782
-5.10271
-4.7422
-4.42973
-4.1521
-3.89482
-3.68009
-3.50056
-3.34288
-3.21509
-3.09717
-2.9555
-2.78367
-2.61425
-2.4555
-2.30546
-2.17521
-2.05986
-1.95217
-1.85804
-1.77476
-1.70152
-1.64942
-1.61776
-1.5969
-1.58002
-1.56775
-1.55891
-1.55212
-1.54866
-1.54808
-1.54934
-1.55263
-1.55726
-1.56203
-1.56649
-1.57131
-1.57677
-1.58268
-1.58866
-1.59444
-1.59967
-1.60371
-1.60636
-1.60762
-27.0572
-27.1078
-27.1849
-27.2306
-27.1299
-26.6857
-25.6226
-23.7194
-21.1537
-18.6504
-16.366
-14.2459
-12.4772
-10.9563
-9.54564
-8.34508
-7.28127
-6.3122
-5.6232
-5.18759
-4.84696
-4.50874
-4.22219
-3.9675
-3.71844
-3.52146
-3.36254
-3.21909
-3.11572
-3.02516
-2.89522
-2.71553
-2.54368
-2.38609
-2.23356
-2.10707
-1.99679
-1.88952
-1.7983
-1.71696
-1.64187
-1.59326
-1.56979
-1.55651
-1.54408
-1.53611
-1.53112
-1.52682
-1.52619
-1.52846
-1.53199
-1.53769
-1.54472
-1.55134
-1.55697
-1.56288
-1.56954
-1.57667
-1.58375
-1.59058
-1.59679
-1.6015
-1.6045
-1.6059
-27.4583
-27.5432
-27.6913
-27.8472
-27.8898
-27.5873
-26.5703
-24.4721
-21.468
-18.7132
-16.2927
-14.0056
-12.2012
-10.683
-9.21157
-8.01065
-6.93936
-5.89774
-5.22586
-4.87516
-4.60185
-4.27695
-4.01845
-3.78997
-3.54121
-3.36348
-3.22795
-3.09413
-3.0186
-2.96274
-2.84572
-2.64911
-2.47385
-2.31886
-2.16052
-2.03922
-1.93594
-1.82696
-1.73952
-1.66063
-1.58046
-1.5354
-1.52222
-1.51773
-1.50895
-1.50534
-1.50442
-1.50202
-1.5042
-1.50947
-1.51502
-1.52317
-1.53278
-1.54127
-1.5478
-1.55468
-1.56255
-1.57091
-1.57909
-1.58698
-1.59427
-1.59966
-1.60298
-1.60449
-27.8292
-27.95
-28.1745
-28.4541
-28.6687
-28.5572
-27.6393
-25.3279
-21.7315
-18.723
-16.2021
-13.7033
-11.8941
-10.4143
-8.85143
-7.6712
-6.60761
-5.44582
-4.79754
-4.56459
-4.37503
-4.04533
-3.81907
-3.62315
-3.36105
-3.20603
-3.09893
-2.96588
-2.92278
-2.91222
-2.8103
-2.58242
-2.40403
-2.25504
-2.08511
-1.97161
-1.87857
-1.7639
-1.68201
-1.60691
-1.51645
-1.47526
-1.47541
-1.48126
-1.47458
-1.47551
-1.47908
-1.47761
-1.4827
-1.49126
-1.4984
-1.50905
-1.52152
-1.53192
-1.53896
-1.54668
-1.55577
-1.56542
-1.57466
-1.58361
-1.59213
-1.5982
-1.60177
-1.60336
-28.1672
-28.3248
-28.6292
-29.0435
-29.4588
-29.5961
-28.8533
-26.3228
-21.9036
-18.6654
-16.112
-13.3195
-11.5551
-10.1683
-8.45452
-7.33039
-6.30344
-4.94314
-4.3308
-4.26147
-4.17719
-3.80968
-3.62421
-3.47261
-3.1741
-3.04886
-2.97903
-2.83091
-2.8267
-2.87645
-2.79369
-2.51191
-2.33322
-2.19683
-2.00525
-1.90414
-1.82664
-1.6991
-1.62605
-1.5576
-1.44846
-1.41206
-1.42983
-1.44808
-1.44066
-1.4466
-1.45552
-1.45335
-1.46164
-1.47402
-1.482
-1.49528
-1.51102
-1.52342
-1.5304
-1.53883
-1.54919
-1.56021
-1.57045
-1.58044
-1.59039
-1.59714
-1.60088
-1.60249
-28.4706
-28.6647
-29.0502
-29.6073
-30.2497
-30.7008
-30.2392
-27.5111
-21.9207
-18.5243
-16.0551
-12.8235
-11.1832
-9.97363
-8.0011
-6.99212
-6.05391
-4.3686
-3.81616
-3.97328
-4.02336
-3.56158
-3.4336
-3.34695
-2.97363
-2.89157
-2.87409
-2.68382
-2.72806
-2.85888
-2.80274
-2.43163
-2.26019
-2.14801
-1.91756
-1.83663
-1.78321
-1.6303
-1.57195
-1.5155
-1.37432
-1.34479
-1.38615
-1.41953
-1.40654
-1.41856
-1.43436
-1.42883
-1.44097
-1.45806
-1.46565
-1.48178
-1.50139
-1.51595
-1.52203
-1.53106
-1.54281
-1.5553
-1.56644
-1.5774
-1.58912
-1.5965
-1.60028
-1.60184
-28.7385
-28.9676
-29.4332
-30.1368
-31.0284
-31.8627
-31.8255
-28.9755
-21.6865
-18.2828
-16.0872
-12.167
-10.7779
-9.8743
-7.45722
-6.66038
-5.9004
-3.6893
-3.24239
-3.7098
-3.93476
-3.28622
-3.24657
-3.2595
-2.74861
-2.73371
-2.79342
-2.51632
-2.62381
-2.86356
-2.84748
-2.33206
-2.18354
-2.11481
-1.81658
-1.7689
-1.75302
-1.5537
-1.51998
-1.48489
-1.29061
-1.2723
-1.34527
-1.39753
-1.37106
-1.3913
-1.41656
-1.40334
-1.42063
-1.44387
-1.44902
-1.46846
-1.49274
-1.50976
-1.51367
-1.5233
-1.5366
-1.55075
-1.56261
-1.57439
-1.58837
-1.59629
-1.59995
-1.6014
-28.9704
-29.2324
-29.7744
-30.6236
-31.7795
-33.0663
-33.6388
-30.8411
-21.0563
-17.9246
-16.2974
-11.274
-10.339
-9.93727
-6.76763
-6.33915
-5.90509
-2.85485
-2.59747
-3.48313
-3.94144
-2.95928
-3.06219
-3.23062
-2.48154
-2.57489
-2.75143
-2.31587
-2.51025
-2.89492
-2.94257
-2.19852
-2.10186
-2.10701
-1.69379
-1.70077
-1.74331
-1.46313
-1.47042
-1.47225
-1.19213
-1.19337
-1.30833
-1.38472
-1.33223
-1.36471
-1.40354
-1.37577
-1.40053
-1.43219
-1.43161
-1.45521
-1.48522
-1.50521
-1.50506
-1.51549
-1.53057
-1.54663
-1.55895
-1.57128
-1.58828
-1.59653
-1.59985
-1.60113
-29.1669
-29.4587
-30.071
-31.0596
-32.4855
-34.2869
-35.6978
-33.2946
-19.8171
-17.4371
-16.8226
-10.0286
-9.86777
-10.262
-5.84593
-6.03241
-6.15965
-1.78934
-1.87064
-3.30727
-4.08574
-2.54293
-2.87955
-3.29073
-2.14556
-2.41497
-2.76977
-2.06389
-2.38337
-2.95735
-3.10935
-2.00892
-2.01394
-2.13954
-1.53617
-1.63219
-1.76489
-1.34903
-1.42355
-1.48711
-1.071
-1.10693
-1.2767
-1.38481
-1.28698
-1.33866
-1.39746
-1.34438
-1.38065
-1.42409
-1.41264
-1.44192
-1.47899
-1.50279
-1.49582
-1.50757
-1.52471
-1.54304
-1.55544
-1.56786
-1.58902
-1.59724
-1.59997
-1.60099
-29.329
-29.6467
-30.3216
-31.4381
-33.128
-35.4895
-38.0036
-36.6109
-17.6608
-16.8152
-17.8648
-8.25678
-9.36806
-10.9932
-4.5618
-5.74421
-6.79655
-0.3805
-1.05602
-3.19686
-4.42705
-1.98041
-2.69832
-3.48441
-1.70049
-2.25449
-2.8801
-1.73314
-2.23965
-3.05423
-3.37857
-1.73089
-1.91923
-2.2344
-1.32424
-1.56337
-1.83353
-1.19703
-1.3797
-1.54331
-0.915587
-1.01248
-1.25187
-1.40295
-1.23066
-1.31315
-1.40146
-1.30656
-1.36103
-1.42117
-1.39096
-1.42854
-1.47423
-1.50319
-1.48537
-1.49954
-1.51901
-1.54016
-1.55211
-1.56385
-1.59089
-1.59843
-1.60028
-1.60097
-29.4584
-29.7977
-30.5255
-31.754
-33.6886
-36.6284
-40.525
-41.1888
-14.1491
-16.0672
-19.7141
-5.70407
-8.84846
-12.3374
-2.72434
-5.47901
-8.00345
1.53479
-0.158505
-3.16452
-5.04805
-1.18925
-2.51947
-3.87537
-1.08773
-2.09519
-3.12749
-1.28445
-2.07737
-3.18646
-3.79405
-1.31807
-1.81841
-2.42321
-1.02958
-1.49506
-1.97178
-0.986138
-1.33933
-1.66044
-0.708966
-0.910679
-1.23526
-1.44626
-1.15645
-1.28832
-1.42001
-1.25849
-1.34186
-1.42568
-1.36486
-1.41516
-1.47108
-1.50739
-1.47288
-1.4915
-1.5135
-1.5382
-1.549
-1.55886
-1.5943
-1.60008
-1.60075
-1.60105
-29.5571
-29.9133
-30.6835
-32.004
-34.1509
-37.6482
-43.1773
-47.5963
-8.66961
-15.2233
-22.7752
-2.00644
-8.32567
-14.5822
-0.0615498
-5.24225
-10.0411
4.18916
0.797449
-3.21641
-6.06275
-0.0527684
-2.34645
-4.55275
-0.223878
-1.94094
-3.57467
-0.662302
-1.89878
-3.3501
-4.41737
-0.70536
-1.71425
-2.75014
-0.611684
-1.42891
-2.21114
-0.686486
-1.30313
-1.86575
-0.426971
-0.804258
-1.22784
-1.52448
-1.05471
-1.26469
-1.45933
-1.19469
-1.3236
-1.4407
-1.33188
-1.40206
-1.46964
-1.51673
-1.45717
-1.48368
-1.50816
-1.53747
-1.54622
-1.55235
-1.59987
-1.60216
-1.60138
-1.60125
-29.6273
-29.996
-30.7975
-32.1873
-34.5021
-38.4877
-45.7934
-56.6283
-0.382
-14.3472
-27.5996
3.34445
-7.82916
-18.121
3.80464
-5.04144
-13.2648
7.90829
1.75525
-3.34518
-7.6268
1.59024
-2.1867
-5.63846
1.0072
-1.79888
-4.30696
0.210599
-1.71323
-3.53293
-5.33381
0.196811
-1.6127
-3.27554
-0.0141203
-1.36801
-2.59473
-0.256588
-1.27225
-2.19632
-0.0357483
-0.699342
-1.22948
-1.65084
-0.912051
-1.24328
-1.52791
-1.10752
-1.30712
-1.47042
-1.28856
-1.38992
-1.46987
-1.53304
-1.43661
-1.47656
-1.50296
-1.53839
-1.54397
-1.54358
-1.60846
-1.60459
-1.6022
-1.60161
-29.6717
-30.0484
-30.87
-32.3055
-34.7349
-39.087
-48.0852
-69.3772
11.8473
-13.5502
-34.9219
11.0428
-7.40745
-23.48
9.38766
-4.88756
-18.1496
13.1396
2.60917
-3.5199
-9.95019
3.9577
-2.05368
-7.29574
2.76365
-1.68116
-5.43799
1.44007
-1.54168
-3.70974
-6.65975
1.50935
-1.52444
-4.07992
0.840055
-1.31762
-3.18022
0.359889
-1.24851
-2.70176
0.511249
-0.607187
-1.2381
-1.84309
-0.710334
-1.22593
-1.63703
-0.986487
-1.2939
-1.52036
-1.23015
-1.37997
-1.47151
-1.55879
-1.40897
-1.47095
-1.49782
-1.54149
-1.54256
-1.53158
-1.62128
-1.60721
-1.60327
-1.6022
-29.6927
-30.0733
-30.9047
-32.3624
-34.8489
-39.3988
-49.5954
-87.3164
29.5208
-13.0105
-45.6999
22.0161
-7.13629
-31.349
17.3698
-4.79709
-25.3192
20.487
3.18229
-3.67191
-13.3126
7.33852
-1.96921
-9.73858
5.25655
-1.60678
-7.11589
3.16868
-1.42235
-3.8358
-8.55111
3.39279
-1.46641
-5.26821
2.05389
-1.28563
-4.04291
1.23833
-1.23419
-3.44652
1.27753
-0.545663
-1.24757
-2.12403
-0.424585
-1.21469
-1.80048
-0.816539
-1.28524
-1.59659
-1.14906
-1.37312
-1.47278
-1.59617
-1.37009
-1.46695
-1.49138
-1.54626
-1.5413
-1.51387
-1.63878
-1.60857
-1.60355
-1.60194
)
;

boundaryField
{
    left
    {
        type            calculated;
        value           nonuniform List<scalar> 
32
(
-20.159
-20.2373
-20.3861
-20.597
-20.8627
-21.1767
-21.5329
-21.9255
-22.3489
-22.7977
-23.2662
-23.7488
-24.2401
-24.7342
-25.2255
-25.7086
-26.1781
-26.6292
-27.0572
-27.4583
-27.8292
-28.1672
-28.4706
-28.7385
-28.9704
-29.1669
-29.329
-29.4584
-29.5571
-29.6273
-29.6717
-29.6927
)
;
    }
    right
    {
        type            calculated;
        value           nonuniform List<scalar> 
32
(
-1.65839
-1.65745
-1.65568
-1.65323
-1.65025
-1.64687
-1.64321
-1.63939
-1.63549
-1.63162
-1.62782
-1.62418
-1.62074
-1.61754
-1.61461
-1.61197
-1.60964
-1.60762
-1.6059
-1.60449
-1.60336
-1.60249
-1.60184
-1.6014
-1.60113
-1.60099
-1.60097
-1.60105
-1.60125
-1.60161
-1.6022
-1.60194
)
;
    }
    interface
    {
        type            calculated;
        value           nonuniform List<scalar> 
64
(
-29.6978
-30.0792
-30.913
-32.3761
-34.8767
-39.4782
-50.0856
-97.7944
39.932
-12.832
-52.0878
28.4537
-7.04979
-36.0086
22.0575
-4.77017
-29.5634
24.776
3.37133
-3.73079
-15.2933
9.3233
-1.94244
-11.1866
6.71718
-1.5833
-8.11244
4.17818
-1.3818
-3.87911
-9.66041
4.50007
-1.4475
-5.97309
2.76543
-1.2754
-4.55414
1.7538
-1.22967
-3.88779
1.72465
-0.525237
-1.2514
-2.28984
-0.257059
-1.21082
-1.89762
-0.717081
-1.28214
-1.642
-1.10166
-1.37051
-1.47293
-1.61795
-1.34712
-1.46525
-1.48752
-1.54887
-1.54048
-1.50311
-1.64865
-1.60859
-1.60322
-1.60132
)
;
    }
    bottom
    {
        type            calculated;
        value           nonuniform List<scalar> 
64
(
-20.1386
-20.0421
-19.85
-19.5648
-19.1898
-18.7304
-18.1932
-17.5866
-16.9205
-16.2061
-15.4553
-14.6802
-13.8927
-13.1038
-12.3236
-11.5609
-10.8227
-10.1147
-9.44126
-8.80498
-8.20744
-7.64912
-7.12962
-6.64786
-6.20229
-5.791
-5.41188
-5.06273
-4.74137
-4.44567
-4.17362
-3.9234
-3.69335
-3.48199
-3.288
-3.11024
-2.94765
-2.79929
-2.6643
-2.54186
-2.43118
-2.3315
-2.24208
-2.16217
-2.09107
-2.02805
-1.97243
-1.92355
-1.88078
-1.84352
-1.81122
-1.78335
-1.75942
-1.73902
-1.72172
-1.70717
-1.69506
-1.68508
-1.67699
-1.67058
-1.66566
-1.6621
-1.65978
-1.65864
)
;
    }
    defaultFaces
    {
        type            empty;
    }
}


// ************************************************************************* //
