/*--------------------------------*- C++ -*----------------------------------*\
| =========                 |                                                 |
| \\      /  F ield         | OpenFOAM: The Open Source CFD Toolbox           |
|  \\    /   O peration     | Version:  5.x                                   |
|   \\  /    A nd           | Web:      www.OpenFOAM.org                      |
|    \\/     M anipulation  |                                                 |
\*---------------------------------------------------------------------------*/
FoamFile
{
    version     2.0;
    format      ascii;
    class       volScalarField;
    location    "9";
    object      T;
}
// * * * * * * * * * * * * * * * * * * * * * * * * * * * * * * * * * * * * * //

dimensions      [0 0 0 1 0 0 0];

internalField   nonuniform List<scalar> 
2048
(
9.85532
9.85601
9.85739
9.85944
9.86213
9.86544
9.8693
9.87365
9.87844
9.88357
9.88896
9.89453
9.90019
9.90586
9.91146
9.91694
9.92225
9.92733
9.93217
9.93674
9.94104
9.94505
9.94878
9.95224
9.95544
9.9584
9.96112
9.96363
9.96594
9.96806
9.97002
9.97181
9.97347
9.97498
9.97638
9.97766
9.97882
9.97989
9.98086
9.98174
9.98253
9.98325
9.98389
9.98447
9.98498
9.98543
9.98583
9.98618
9.98649
9.98676
9.98699
9.98719
9.98736
9.98751
9.98763
9.98774
9.98782
9.98789
9.98795
9.988
9.98803
9.98806
9.98808
9.98808
9.57171
9.57377
9.57786
9.58394
9.59193
9.60173
9.61319
9.62613
9.64034
9.65559
9.67161
9.68814
9.70493
9.72175
9.73837
9.75461
9.77032
9.78538
9.7997
9.81322
9.82592
9.83777
9.8488
9.85902
9.86848
9.8772
9.88524
9.89264
9.89945
9.90572
9.91149
9.91679
9.92167
9.92615
9.93026
9.93403
9.93748
9.94063
9.94349
9.94608
9.94843
9.95054
9.95244
9.95413
9.95564
9.95697
9.95815
9.95918
9.96009
9.96088
9.96156
9.96215
9.96265
9.96308
9.96345
9.96376
9.96401
9.96422
9.96439
9.96453
9.96463
9.96471
9.96476
9.96478
9.29895
9.30233
9.30905
9.31904
9.33218
9.3483
9.36716
9.38848
9.41188
9.43699
9.46336
9.49057
9.51819
9.54583
9.57313
9.59978
9.62553
9.6502
9.67363
9.69574
9.71647
9.73582
9.7538
9.77047
9.78587
9.80007
9.81316
9.8252
9.83629
9.84649
9.85587
9.8645
9.87244
9.87973
9.88643
9.89256
9.89817
9.9033
9.90795
9.91218
9.916
9.91943
9.92251
9.92526
9.92771
9.92988
9.93179
9.93346
9.93493
9.93621
9.93731
9.93827
9.93908
9.93978
9.94037
9.94087
9.94128
9.94162
9.94189
9.94211
9.94228
9.9424
9.94247
9.94251
9.03578
9.04044
9.04973
9.06354
9.08173
9.10406
9.13021
9.15977
9.19224
9.22707
9.26365
9.30136
9.33961
9.37784
9.41556
9.45234
9.48783
9.52178
9.55399
9.58434
9.61277
9.63927
9.66388
9.68666
9.70769
9.72709
9.74495
9.76138
9.7765
9.79041
9.8032
9.81498
9.82581
9.83576
9.84489
9.85327
9.86093
9.86792
9.87427
9.88004
9.88524
9.88993
9.89413
9.89787
9.9012
9.90414
9.90674
9.90902
9.91101
9.91274
9.91423
9.91553
9.91663
9.91757
9.91837
9.91904
9.91959
9.92005
9.92042
9.92071
9.92093
9.92109
9.9212
9.92125
8.78117
8.78709
8.79889
8.81646
8.83961
8.86808
8.90145
8.93921
8.98072
9.02523
9.07196
9.12009
9.16885
9.21753
9.26547
9.31215
9.35713
9.40008
9.44075
9.47902
9.51481
9.54814
9.57904
9.60762
9.63398
9.65827
9.68062
9.70118
9.72009
9.73748
9.75349
9.76822
9.78177
9.79422
9.80566
9.81614
9.82574
9.83449
9.84244
9.84966
9.85617
9.86202
9.86727
9.87194
9.87609
9.87976
9.88299
9.88582
9.88829
9.89044
9.8923
9.8939
9.89526
9.89643
9.89741
9.89823
9.89891
9.89948
9.89993
9.90029
9.90056
9.90076
9.90088
9.90095
8.53427
8.54142
8.55568
8.57694
8.60501
8.63958
8.68017
8.72614
8.7767
8.83093
8.88783
8.94638
9.00562
9.06465
9.12269
9.17909
9.23332
9.28501
9.33387
9.37974
9.42258
9.46239
9.49926
9.53331
9.56469
9.59358
9.62014
9.64457
9.66702
9.68768
9.70669
9.72419
9.74029
9.75509
9.76869
9.78116
9.79257
9.80298
9.81244
9.82101
9.82874
9.83569
9.84191
9.84745
9.85236
9.8567
9.86051
9.86385
9.86676
9.86929
9.87147
9.87335
9.87495
9.87631
9.87746
9.87842
9.87922
9.87987
9.88039
9.88081
9.88112
9.88135
9.8815
9.88157
8.29439
8.30274
8.31941
8.3443
8.37724
8.41789
8.46571
8.51996
8.57967
8.64372
8.71088
8.77991
8.84963
8.91897
8.98701
9.05298
9.11628
9.17646
9.23323
9.28642
9.33597
9.38195
9.42446
9.46367
9.49976
9.53295
9.56344
9.59147
9.61723
9.64093
9.66274
9.68282
9.7013
9.71831
9.73394
9.74827
9.76139
9.77335
9.78422
9.79406
9.80294
9.8109
9.81802
9.82436
9.82997
9.83492
9.83927
9.84307
9.84638
9.84925
9.85172
9.85384
9.85565
9.85719
9.85848
9.85956
9.86046
9.86119
9.86177
9.86223
9.86259
9.86284
9.863
9.86308
8.06096
8.07047
8.08949
8.11795
8.1557
8.20242
8.25752
8.32015
8.38916
8.4632
8.54076
8.62038
8.70064
8.7803
8.85827
8.93369
9.00587
9.07432
9.13873
9.19892
9.25489
9.30671
9.35453
9.39857
9.43907
9.47627
9.51042
9.54179
9.57062
9.59713
9.62154
9.64403
9.66474
9.68381
9.70134
9.71741
9.73212
9.74554
9.75773
9.76876
9.7787
9.78761
9.79556
9.80263
9.80888
9.81439
9.81922
9.82343
9.8271
9.83027
9.833
9.83534
9.83734
9.83902
9.84044
9.84162
9.8426
9.84339
9.84403
9.84453
9.84491
9.84518
9.84536
9.84544
7.83353
7.84416
7.86544
7.89738
7.93989
7.99266
8.05511
8.12626
8.20477
8.289
8.37718
8.46755
8.55845
8.64843
8.73629
8.82104
8.90193
8.97844
9.05022
9.11713
9.17919
9.23652
9.28934
9.3379
9.38249
9.42341
9.46095
9.49541
9.52706
9.55619
9.583
9.60772
9.63051
9.6515
9.6708
9.68851
9.70471
9.71949
9.73291
9.74505
9.75597
9.76576
9.77448
9.78221
9.78905
9.79506
9.80032
9.8049
9.80889
9.81233
9.81528
9.81781
9.81996
9.82177
9.8233
9.82456
9.8256
9.82645
9.82712
9.82765
9.82805
9.82834
9.82853
9.82862
7.61175
7.62344
7.64689
7.68219
7.72936
7.78817
7.85803
7.93787
8.02612
8.12082
8.21987
8.32118
8.42284
8.52319
8.6209
8.71488
8.80432
8.88866
8.96755
9.04088
9.10871
9.17123
9.22871
9.28148
9.32988
9.37423
9.41489
9.45219
9.48644
9.51796
9.547
9.57379
9.5985
9.62128
9.64224
9.66148
9.67908
9.69513
9.7097
9.72286
9.7347
9.74529
9.75471
9.76306
9.77041
9.77687
9.78252
9.78743
9.79169
9.79536
9.79851
9.8012
9.80348
9.8054
9.807
9.80834
9.80943
9.81031
9.81102
9.81157
9.81198
9.81228
9.81247
9.81256
7.39534
7.40802
7.43351
7.47203
7.52373
7.58853
7.66589
7.75462
7.85289
7.9584
8.06861
8.18109
8.29364
8.40442
8.51194
8.61504
8.71286
8.80481
8.89055
8.97
9.04327
9.11065
9.17248
9.22915
9.28105
9.32857
9.37209
9.41198
9.44861
9.48232
9.5134
9.5421
9.56861
9.59306
9.61557
9.63624
9.65514
9.67238
9.68802
9.70214
9.71483
9.72616
9.73622
9.74511
9.75293
9.75979
9.76577
9.77097
9.77546
9.77933
9.78264
9.78546
9.78785
9.78986
9.79153
9.79291
9.79404
9.79496
9.79568
9.79624
9.79666
9.79696
9.79715
9.79725
7.18411
7.19768
7.22505
7.26659
7.32267
7.39338
7.4783
7.57614
7.6848
7.80148
7.9232
8.04709
8.17069
8.29193
8.40923
8.52135
8.62739
8.72674
8.81905
8.9043
8.98269
9.0546
9.12046
9.18073
9.23585
9.28626
9.33238
9.37464
9.41343
9.44913
9.48208
9.51255
9.54072
9.56673
9.59069
9.61269
9.63282
9.65117
9.66781
9.68282
9.69628
9.70829
9.71892
9.7283
9.73654
9.74374
9.75002
9.75546
9.76016
9.76419
9.76764
9.77057
9.77304
9.77511
9.77683
9.77825
9.77941
9.78033
9.78107
9.78163
9.78205
9.78235
9.78254
9.78264
6.97793
6.99228
7.02133
7.06565
7.12587
7.20238
7.29491
7.40214
7.52158
7.64987
7.78346
7.91906
8.05384
8.18559
8.31262
8.43365
8.54773
8.65425
8.75287
8.8436
8.92677
9.00287
9.07244
9.13601
9.19408
9.24713
9.29561
9.34
9.38073
9.41824
9.4529
9.485
9.51471
9.54218
9.5675
9.59076
9.61203
9.63141
9.64898
9.66482
9.679
9.69162
9.70278
9.71259
9.72119
9.72869
9.73522
9.74086
9.74573
9.7499
9.75345
9.75646
9.759
9.76112
9.76287
9.76431
9.76548
9.76642
9.76715
9.76771
9.76812
9.76842
9.7686
9.76869
6.7767
6.79171
6.8222
6.86899
6.93307
7.0152
7.11538
7.23229
7.36298
7.50339
7.64928
7.79685
7.94296
8.08524
8.22193
8.35173
8.4737
8.58717
8.6918
8.78769
8.87529
8.95525
9.02822
9.0948
9.15556
9.21099
9.26161
9.30791
9.35038
9.38951
9.42572
9.45932
9.49049
9.51932
9.54592
9.57034
9.59269
9.61303
9.63147
9.64807
9.66292
9.6761
9.68772
9.69791
9.70682
9.71458
9.72131
9.72713
9.73213
9.73641
9.74004
9.74312
9.74569
9.74784
9.74961
9.75106
9.75223
9.75316
9.75389
9.75444
9.75484
9.75512
9.7553
9.75539
6.58038
6.59591
6.62757
6.67647
6.74404
6.83153
6.93938
7.0663
7.20882
7.36191
7.52053
7.68036
7.83792
7.99071
8.137
8.27543
8.40509
8.52531
8.63568
8.73636
8.82803
8.91152
8.98759
9.05691
9.1201
9.17769
9.23021
9.27821
9.32222
9.36279
9.40041
9.4354
9.46792
9.49804
9.52583
9.55136
9.5747
9.59595
9.6152
9.63251
9.64797
9.66166
9.67368
9.6842
9.69337
9.70134
9.70825
9.71421
9.71932
9.72368
9.72737
9.73048
9.73308
9.73524
9.73702
9.73847
9.73963
9.74055
9.74125
9.74178
9.74217
9.74244
9.74261
9.74269
6.38899
6.40486
6.43736
6.48795
6.55856
6.65109
6.76657
6.90388
7.05889
7.2253
7.39712
7.56951
7.7386
7.90186
8.05763
8.20455
8.34172
8.46848
8.5843
8.68941
8.78478
8.87147
8.95032
9.02212
9.08751
9.14704
9.20125
9.25075
9.29611
9.33794
9.37682
9.41311
9.44691
9.47824
9.50717
9.53372
9.558
9.5801
9.6001
9.61807
9.6341
9.64825
9.66063
9.67141
9.6808
9.68895
9.69599
9.70205
9.70724
9.71166
9.71539
9.71852
9.72113
9.72329
9.72506
9.7265
9.72764
9.72853
9.72921
9.72972
9.73008
9.73033
9.73049
9.73057
6.20253
6.21856
6.25157
6.30335
6.37645
6.47358
6.5966
6.74474
6.91306
7.0935
7.27899
7.46422
7.64489
7.81852
7.98364
8.13887
8.28338
8.4165
8.53748
8.64663
8.74529
8.83485
8.91622
8.99024
9.05762
9.11887
9.17458
9.2254
9.2719
9.31481
9.35483
9.39234
9.42734
9.45983
9.48983
9.51736
9.5425
9.56539
9.58609
9.60469
9.62125
9.63581
9.64848
9.65949
9.66905
9.67733
9.68448
9.69062
9.69587
9.70031
9.70406
9.70719
9.70979
9.71194
9.7137
9.71511
9.71623
9.71709
9.71774
9.71822
9.71855
9.71878
9.71892
9.71899
6.02105
6.03706
6.07019
6.12262
6.19755
6.29871
6.42909
6.58856
6.77122
6.96646
7.16607
7.36443
7.55666
7.7405
7.91485
8.07818
8.22984
8.3692
8.49504
8.60779
8.70934
8.80146
8.88506
8.96106
9.03025
9.09304
9.15005
9.202
9.24946
9.29326
9.3343
9.37298
9.40913
9.44271
9.47374
9.50217
9.52813
9.55176
9.57312
9.59229
9.60936
9.62428
9.6372
9.64838
9.65807
9.66645
9.67367
9.67987
9.68515
9.68961
9.69336
9.69647
9.69905
9.70117
9.7029
9.70428
9.70537
9.70619
9.70681
9.70725
9.70755
9.70775
9.70788
9.70794
5.84462
5.8604
5.89324
5.94571
6.02173
6.1262
6.26365
6.43502
6.6333
6.84418
7.05833
7.27012
7.47382
7.66761
7.85106
8.02225
8.18086
8.32641
8.45683
8.57268
8.67666
8.77107
8.85664
8.93439
9.00524
9.06938
9.1275
9.18044
9.22866
9.27316
9.31509
9.35491
9.39219
9.42681
9.45883
9.4881
9.5148
9.53914
9.5611
9.58082
9.59837
9.61362
9.62673
9.63802
9.6478
9.65625
9.66351
9.66975
9.67504
9.6795
9.68323
9.68632
9.68886
9.69094
9.69264
9.69399
9.69503
9.69581
9.69638
9.69678
9.69705
9.69722
9.69733
9.69738
5.67329
5.68865
5.72079
5.77265
5.8489
5.95578
6.09984
6.28374
6.49933
6.72672
6.95568
7.18127
7.39623
7.59962
7.7921
7.97085
8.13619
8.288
8.4227
8.54106
8.64699
8.74346
8.83075
8.91003
8.98243
9.04775
9.1068
9.1606
9.20939
9.25437
9.29707
9.33806
9.37642
9.41203
9.44502
9.47508
9.50245
9.52746
9.54999
9.57021
9.58824
9.60379
9.61701
9.62836
9.63821
9.64669
9.65398
9.66024
9.66552
9.66996
9.67366
9.6767
9.67919
9.68122
9.68288
9.68419
9.68519
9.68592
9.68645
9.6868
9.68702
9.68717
9.68725
9.68729
5.50713
5.52187
5.55291
5.60347
5.67899
5.7872
5.93716
6.1343
6.36944
6.61415
6.85803
7.09791
7.32379
7.53625
7.73778
7.92373
8.09551
8.25385
8.39253
8.5127
8.62006
8.71846
8.80721
8.88778
8.96168
9.02801
9.08781
9.14239
9.19154
9.23673
9.2801
9.32234
9.36177
9.39829
9.43226
9.46303
9.49099
9.51667
9.53971
9.5604
9.57893
9.59474
9.60801
9.61935
9.62925
9.63774
9.64502
9.65128
9.65655
9.66094
9.66461
9.66759
9.67001
9.67199
9.67361
9.67487
9.67582
9.6765
9.67697
9.67727
9.67745
9.67756
9.67762
9.67766
5.34619
5.36014
5.38966
5.43824
5.51199
5.62022
5.77508
5.98613
6.2439
6.50662
6.76521
7.02014
7.25637
7.47716
7.68799
7.88063
8.05847
8.22392
8.36624
8.48736
8.59554
8.69588
8.78583
8.86742
8.94289
9.01004
9.07036
9.12572
9.17502
9.22013
9.26403
9.30769
9.34816
9.38551
9.4205
9.45189
9.48036
9.50672
9.53021
9.55132
9.57041
9.58644
9.59966
9.61094
9.62087
9.62935
9.63659
9.64286
9.64809
9.65242
9.65604
9.65896
9.6613
9.66321
9.66479
9.66601
9.6669
9.66752
9.66794
9.66818
9.66831
9.66838
9.66842
9.66845
5.19053
5.20352
5.23113
5.27706
5.34794
5.45464
5.61298
5.83853
6.12323
6.40432
6.6769
6.94813
7.19385
7.42191
7.64269
7.84129
8.02461
8.19822
8.34379
8.46476
8.57308
8.6756
8.76645
8.84872
8.92598
8.99372
9.0543
9.11055
9.15975
9.2044
9.2487
9.29409
9.33553
9.37359
9.40971
9.44161
9.47045
9.49756
9.52143
9.54289
9.56264
9.57886
9.59193
9.60307
9.61305
9.62147
9.62865
9.63494
9.64012
9.64437
9.64794
9.65078
9.65303
9.65487
9.6564
9.65757
9.65841
9.65896
9.65932
9.65951
9.65957
9.6596
9.65963
9.65964
5.04018
5.05205
5.07743
5.12004
5.18692
5.29033
5.4502
5.69055
6.00825
6.30747
6.59262
6.88222
7.13611
7.36993
7.60193
7.80543
7.99337
8.17688
8.32516
8.44462
8.55227
8.65756
8.7489
8.83143
8.9109
8.97894
9.03945
9.09685
9.14568
9.18939
9.23391
9.28154
9.32385
9.36242
9.39987
9.43214
9.46118
9.48918
9.51331
9.53502
9.55562
9.57198
9.58476
9.59568
9.60575
9.61409
9.62117
9.6275
9.6326
9.63675
9.64029
9.64303
9.64516
9.64692
9.64843
9.64955
9.65031
9.6508
9.6511
9.65123
9.65122
9.65122
9.65122
9.65123
4.89515
4.90578
4.92862
4.96733
5.02907
5.12724
5.28603
5.54087
5.90026
6.21634
6.51154
6.82298
7.08301
7.32041
7.56596
7.77278
7.96395
8.16021
8.31039
8.4266
8.53262
8.64179
8.73305
8.81521
8.89769
8.9656
9.02558
9.08466
9.13277
9.17496
9.21944
9.27011
9.31308
9.35185
9.39102
9.42342
9.45243
9.48158
9.5058
9.52762
9.54936
9.56577
9.5781
9.5887
9.59895
9.60717
9.61409
9.62051
9.62551
9.62953
9.63305
9.63569
9.63768
9.63935
9.64084
9.64191
9.64261
9.64302
9.64325
9.64332
9.64324
9.64319
9.64318
9.64318
4.75543
4.76472
4.78478
4.81907
4.87461
4.96543
5.11974
5.38762
5.80118
6.13123
6.43245
6.77129
7.03443
7.27226
7.53532
7.74308
7.93533
8.14872
8.29955
8.41035
8.51353
8.62844
8.71878
8.79967
8.88648
8.95361
9.0124
9.07406
9.121
9.16094
9.205
9.25991
9.30318
9.34171
9.38321
9.41541
9.44405
9.47479
9.49885
9.52055
9.54389
9.56024
9.57189
9.58207
9.59265
9.60068
9.60737
9.61397
9.61883
9.62267
9.62621
9.62873
9.63056
9.63212
9.63363
9.63465
9.63527
9.6356
9.63577
9.63578
9.63561
9.63552
9.63549
9.63549
4.621
4.62889
4.64598
4.67541
4.72378
4.80508
4.9507
5.22819
5.71381
6.05238
6.35349
6.72855
6.9902
7.22399
7.5109
7.71605
7.90609
8.14326
8.29272
8.39549
8.49424
8.61784
8.70597
8.78429
8.87749
8.94288
8.99955
9.06523
9.11035
9.14717
9.19023
9.2512
9.29414
9.33174
9.37656
9.40807
9.43585
9.46889
9.49241
9.51364
9.53928
9.55536
9.56609
9.57569
9.58685
9.59458
9.60095
9.60787
9.61253
9.61614
9.61977
9.62213
9.62378
9.62522
9.62678
9.62774
9.62828
9.62852
9.62863
9.62858
9.62831
9.62818
9.62814
9.62813
4.49181
4.49825
4.51225
4.53651
4.57688
4.64654
4.77838
5.05891
5.64215
5.98001
6.272
6.69686
6.95017
7.17354
7.49416
7.69142
7.87432
8.14514
8.28997
8.38161
8.47379
8.61057
8.69451
8.76838
8.87114
8.93333
8.98653
9.05844
9.10085
9.1335
9.17466
9.24432
9.28592
9.32164
9.37128
9.40135
9.42758
9.46401
9.48644
9.50668
9.53564
9.55113
9.56064
9.56946
9.58158
9.58887
9.59477
9.60222
9.60659
9.60989
9.61371
9.61588
9.61731
9.61861
9.62028
9.62117
9.62161
9.62175
9.62182
9.62172
9.62131
9.62115
9.62111
9.6211
4.36779
4.37277
4.38361
4.40249
4.43425
4.49033
4.6026
4.87465
5.59177
5.91419
6.18426
6.67923
6.91409
7.11811
7.48727
7.66893
7.83745
8.15624
8.29127
8.36829
8.45093
8.60752
8.68429
8.75103
8.86807
8.92485
8.9727
9.05414
9.09248
9.1198
9.15766
9.23982
9.2785
9.31094
9.36768
9.39521
9.41891
9.46039
9.48089
9.49939
9.53316
9.54752
9.55547
9.56326
9.5769
9.58351
9.58875
9.59705
9.60099
9.60389
9.60803
9.60997
9.61113
9.61226
9.61412
9.61492
9.61527
9.61529
9.61532
9.61518
9.6146
9.61443
9.61438
9.61437
4.24886
4.25237
4.26005
4.27346
4.29621
4.33716
4.42371
4.66836
5.57028
5.85479
6.08514
6.67996
6.88168
7.05394
7.49336
7.64831
7.79202
8.17929
8.29644
8.35518
8.42407
8.61001
8.6752
8.73103
8.86921
8.91736
8.9572
9.05293
9.08522
9.10598
9.13842
9.23846
9.27182
9.29907
9.36621
9.3896
9.40943
9.45834
9.47573
9.49137
9.5321
9.54451
9.55054
9.55694
9.5729
9.57847
9.58278
9.5924
9.59571
9.59805
9.60275
9.60436
9.60523
9.60614
9.6083
9.60897
9.60922
9.60912
9.60911
9.60896
9.60816
9.60799
9.60795
9.60793
4.13491
4.13699
4.14154
4.1495
4.16308
4.18787
4.24288
4.43046
5.5879
5.80134
5.96783
6.70497
6.85251
6.97605
7.51678
7.62928
7.73352
8.21802
8.30499
8.34201
8.39114
8.61985
8.66709
8.70682
8.87586
8.9107
8.93892
9.0557
9.079
9.09204
9.11583
9.24127
9.26581
9.28525
9.36751
9.38446
9.39856
9.45833
9.47089
9.48216
9.53284
9.54201
9.54581
9.5503
9.56972
9.57373
9.57675
9.58834
9.59072
9.59233
9.5979
9.59904
9.59958
9.60021
9.60282
9.60331
9.60345
9.6032
9.60318
9.60305
9.60196
9.60181
9.60179
9.60178
4.02583
4.02652
4.02801
4.03064
4.03513
4.0434
4.06245
4.14814
5.65811
5.75288
5.82339
6.76221
6.82597
6.87799
7.56337
7.61156
7.65609
8.27754
8.31598
8.32874
8.34951
8.63952
8.65976
8.67636
8.8898
8.90471
8.91644
9.06364
9.07362
9.07811
9.08849
9.24967
9.26035
9.26848
9.37244
9.37969
9.38558
9.46098
9.46634
9.47111
9.53589
9.53993
9.54124
9.5431
9.56754
9.56926
9.57049
9.58497
9.58599
9.58663
9.5935
9.59399
9.59417
9.59443
9.59771
9.59792
9.59796
9.59753
9.59752
9.59745
9.59598
9.5959
9.59589
9.59589
)
;

boundaryField
{
    left
    {
        type            zeroGradient;
    }
    right
    {
        type            zeroGradient;
    }
    interface
    {
        type            fixedValue;
        value           nonuniform List<scalar> 
64
(
3.97249
3.97249
3.97249
3.97249
3.97249
3.97249
3.97249
3.97249
5.72983
5.72983
5.72983
6.81331
6.81331
6.81331
7.60299
7.60299
7.60299
8.32204
8.32204
8.32204
8.32204
8.65627
8.65627
8.65627
8.90187
8.90187
8.90187
9.07114
9.07114
9.07114
9.07114
9.25775
9.25775
9.25775
9.3774
9.3774
9.3774
9.46413
9.46413
9.46413
9.53899
9.53899
9.53899
9.53899
9.56708
9.56708
9.56708
9.58368
9.58368
9.58368
9.59152
9.59152
9.59152
9.59152
9.59529
9.59529
9.59529
9.59475
9.59475
9.59475
9.59302
9.59302
9.59302
9.59302
)
;
    }
    bottom
    {
        type            fixedValue;
        value           uniform 10;
    }
    defaultFaces
    {
        type            empty;
    }
}


// ************************************************************************* //
