/*--------------------------------*- C++ -*----------------------------------*\
| =========                 |                                                 |
| \\      /  F ield         | OpenFOAM: The Open Source CFD Toolbox           |
|  \\    /   O peration     | Version:  5.x                                   |
|   \\  /    A nd           | Web:      www.OpenFOAM.org                      |
|    \\/     M anipulation  |                                                 |
\*---------------------------------------------------------------------------*/
FoamFile
{
    version     2.0;
    format      ascii;
    class       volScalarField;
    location    "10.9";
    object      gradTx;
}
// * * * * * * * * * * * * * * * * * * * * * * * * * * * * * * * * * * * * * //

dimensions      [0 -1 0 1 0 0 0];

internalField   nonuniform List<scalar> 
2048
(
0.0222181
0.0664075
0.109834
0.15192
0.192008
0.229369
0.263243
0.292901
0.31772
0.337248
0.351257
0.359751
0.362962
0.361309
0.355353
0.345746
0.333184
0.318362
0.301946
0.284544
0.266687
0.248819
0.231297
0.214389
0.19829
0.183121
0.168953
0.155804
0.143657
0.132466
0.122163
0.112668
0.103896
0.0957635
0.088196
0.081128
0.074506
0.0682882
0.0624435
0.0569498
0.0517924
0.0469615
0.0424505
0.0382533
0.0343633
0.0307721
0.027469
0.0244411
0.0216741
0.0191521
0.0168585
0.0147766
0.0128891
0.0111794
0.00963064
0.00822688
0.00695245
0.00579217
0.00473114
0.00375459
0.00284765
0.00199515
0.00118163
0.00039133
0.0658867
0.196949
0.325807
0.450769
0.569882
0.680961
0.781704
0.869897
0.943639
1.00156
1.04297
1.06789
1.07703
1.07168
1.05354
1.02456
0.986849
0.942481
0.89345
0.841565
0.788406
0.73529
0.683266
0.633125
0.585426
0.540529
0.498626
0.459769
0.423899
0.390872
0.36048
0.332479
0.306614
0.282636
0.260318
0.239467
0.219926
0.20157
0.18431
0.168081
0.152842
0.138567
0.125236
0.112833
0.10134
0.0907326
0.0809782
0.0720391
0.063872
0.05643
0.0496637
0.043523
0.0379572
0.0329163
0.0283512
0.0242142
0.0204592
0.0170414
0.0139169
0.0110422
0.00837352
0.00586599
0.00347373
0.00115031
0.108183
0.32345
0.535282
0.740971
0.937307
1.12062
1.28698
1.43259
1.55415
1.64931
1.7169
1.75699
1.77084
1.76067
1.72938
1.6803
1.61696
1.54283
1.46124
1.37519
1.28727
1.19966
1.11404
1.0317
0.953512
0.880042
0.811577
0.74818
0.689735
0.635983
0.586565
0.541063
0.49904
0.460079
0.423803
0.389892
0.358089
0.328195
0.300066
0.273604
0.248745
0.225452
0.203699
0.183464
0.16472
0.147426
0.131532
0.116973
0.103677
0.0915675
0.0805622
0.0705784
0.0615329
0.0533437
0.0459301
0.0392143
0.033121
0.0275774
0.0225125
0.0178558
0.0135362
0.00948049
0.00561286
0.0018582
0.14939
0.446794
0.739846
1.02495
1.29767
1.55277
1.78453
1.9873
2.15622
2.28781
2.38037
2.43411
2.45093
2.43413
2.38796
2.31724
2.22696
2.12209
2.00729
1.88676
1.76412
1.64234
1.52372
1.40997
1.30224
1.20125
1.10734
1.02055
0.9407
0.867378
0.800055
0.738118
0.680935
0.627907
0.578504
0.532282
0.48889
0.448062
0.409609
0.373404
0.339373
0.307473
0.277682
0.249978
0.224326
0.200675
0.178952
0.159069
0.140923
0.124406
0.109405
0.0958031
0.083487
0.0723427
0.0622591
0.0531292
0.0448501
0.0373227
0.0304509
0.0241391
0.0182908
0.0128062
0.00757945
0.00250841
0.189665
0.567497
0.94049
1.30434
1.65342
1.98079
2.27864
2.53916
2.75557
2.92307
3.03939
3.10495
3.12253
3.09671
3.03328
2.93868
2.81953
2.68231
2.53308
2.37729
2.21957
2.06365
1.91241
1.76788
1.63145
1.50392
1.38565
1.27664
1.17656
1.08486
1.0008
0.923548
0.852247
0.786103
0.724427
0.666656
0.612351
0.561187
0.512941
0.467467
0.42469
0.384575
0.347112
0.312285
0.280062
0.250377
0.223137
0.198227
0.175512
0.154853
0.136102
0.119114
0.103742
0.0898418
0.0772727
0.0658992
0.0555923
0.0462287
0.0376892
0.0298554
0.0226076
0.0158211
0.00936014
0.00309656
0.229044
0.68572
1.13765
1.58006
2.00617
2.40716
2.77274
3.0924
3.35701
3.56014
3.69894
3.77422
3.78986
3.75207
3.66841
3.54714
3.39662
3.22496
3.03968
2.84749
2.65405
2.46384
2.28021
2.10547
1.94112
1.78801
1.64645
1.51635
1.39726
1.28841
1.18884
1.09743
1.01309
0.934798
0.861712
0.79315
0.728596
0.66768
0.610151
0.55586
0.504738
0.456775
0.411982
0.370365
0.331894
0.296493
0.264046
0.234405
0.207403
0.182866
0.160615
0.140473
0.122262
0.105808
0.0909405
0.0774959
0.065321
0.0542703
0.0442043
0.0349843
0.0264693
0.0185119
0.0109467
0.00361996
0.267449
0.801285
1.33121
1.85233
2.35679
2.83361
3.2695
3.65057
3.96466
4.20337
4.36326
4.44574
4.45627
4.40302
4.29566
4.14446
3.95967
3.75108
3.52777
3.29779
3.06783
2.84306
2.62722
2.42279
2.23131
2.05355
1.88978
1.73976
1.60288
1.47816
1.36433
1.25997
1.16369
1.07424
0.990603
0.911993
0.837836
0.767726
0.701399
0.638712
0.579617
0.524141
0.472339
0.424244
0.379838
0.339033
0.301684
0.267607
0.236599
0.208447
0.182944
0.159879
0.139046
0.12024
0.10326
0.0879164
0.0740317
0.0614414
0.0499887
0.0395175
0.0298683
0.0208723
0.0123351
0.00407723
0.304687
0.913686
1.52058
2.12076
2.70543
3.26121
3.77105
4.21673
4.58218
4.8566
5.03595
5.12271
5.12439
5.05166
4.91667
4.73192
4.50959
4.2613
3.99775
3.72839
3.46099
3.20137
2.95353
2.71998
2.50216
2.30073
2.11581
1.94705
1.79364
1.65434
1.52756
1.4115
1.3044
1.20477
1.11143
1.02349
0.940342
0.861568
0.7869
0.716205
0.649474
0.586788
0.528265
0.473986
0.423947
0.378044
0.336097
0.297877
0.263139
0.231633
0.203119
0.17736
0.154119
0.133161
0.114253
0.097178
0.0817378
0.0677509
0.0550472
0.0434567
0.0328041
0.022901
0.0135242
0.00446809
0.340461
1.02211
1.70462
2.3843
3.05161
3.69043
4.27905
4.7936
5.21296
5.5233
5.72017
5.80769
5.7962
5.69948
5.53254
5.31029
5.04696
4.75596
4.44974
4.1393
3.83352
3.5388
3.25924
2.99722
2.75392
2.52979
2.32481
2.13848
1.96981
1.81729
1.67892
1.55243
1.43566
1.32682
1.22458
1.12799
1.03643
0.949493
0.866905
0.788559
0.71449
0.644857
0.579871
0.519681
0.4643
0.413603
0.36736
0.325288
0.287091
0.252485
0.221198
0.192966
0.167527
0.144612
0.123957
0.105314
0.0884665
0.0732192
0.059394
0.0468108
0.0352818
0.0246006
0.0145152
0.00479304
0.374375
1.12543
1.88177
2.64131
3.39418
4.12117
4.79479
5.38375
5.86024
6.20674
6.41869
6.50277
6.47309
6.34736
6.14385
5.87998
5.57201
5.23514
4.88367
4.53035
4.18529
3.85534
3.5445
3.25476
2.98691
2.7411
2.51713
2.31439
2.13174
1.96739
1.81885
1.68327
1.55797
1.44087
1.33049
1.22589
1.12646
1.03181
0.9417
0.856022
0.77487
0.698511
0.627284
0.561434
0.500998
0.445809
0.395572
0.349935
0.308548
0.271086
0.237253
0.206764
0.179331
0.154652
0.132425
0.112372
0.0942564
0.0778757
0.0630503
0.049594
0.0373106
0.0259765
0.015311
0.00505323
0.405949
1.22229
2.04998
2.88955
3.73134
4.55282
5.31928
5.98968
6.52729
6.91004
7.13395
7.20951
7.15591
6.99568
6.75074
6.44107
6.08479
5.69877
5.2993
4.90124
4.51609
4.15098
3.80948
3.49294
3.20155
2.9351
2.69319
2.47518
2.27983
2.10509
1.94787
1.80458
1.67191
1.54745
1.42964
1.31759
1.21078
1.10886
1.01158
0.918863
0.830841
0.747922
0.670637
0.599364
0.534154
0.474779
0.420852
0.371936
0.327617
0.287536
0.251374
0.218832
0.189603
0.163349
0.139723
0.118408
0.0991538
0.0817563
0.0660419
0.0518241
0.0389022
0.027036
0.0159157
0.00525023
0.434632
1.31109
2.20682
3.12619
4.06062
4.9842
5.85331
6.61401
7.21753
7.63631
7.86811
7.92902
7.84492
7.64428
7.35299
6.99339
6.58519
6.14668
5.69629
5.25155
4.82564
4.4257
4.05443
3.7122
3.39839
3.1123
2.85348
2.62127
2.41448
2.23083
2.06655
1.91699
1.77809
1.64712
1.52251
1.40351
1.28977
1.18097
1.07687
0.97737
0.882641
0.793271
0.710065
0.633587
0.56389
0.500643
0.443336
0.391425
0.344424
0.301944
0.263656
0.229255
0.198423
0.170782
0.145923
0.123487
0.103212
0.0849011
0.068398
0.0535208
0.04007
0.0277877
0.0163341
0.00538589
0.459825
1.39004
2.34948
3.34782
4.37885
5.41356
6.39753
7.25965
7.93473
8.38864
8.62301
8.66191
8.53984
8.29255
7.95002
7.53658
7.07308
6.57867
6.07416
5.58072
5.11362
4.67954
4.27968
3.91308
3.57804
3.27333
2.99852
2.75311
2.53608
2.34509
2.17548
2.0212
1.87718
1.74046
1.60958
1.48405
1.36377
1.24848
1.13789
1.03184
0.930522
0.834732
0.745691
0.664219
0.590335
0.523542
0.463173
0.408546
0.359101
0.31443
0.274203
0.238123
0.205874
0.177032
0.151106
0.127679
0.106487
0.0873529
0.0701492
0.0547052
0.0408282
0.028241
0.0165714
0.00546224
0.480908
1.45729
2.47491
3.55051
4.68212
5.83848
6.9524
7.92994
8.68311
9.17014
9.40018
9.40827
9.23978
8.93941
8.54099
8.07017
7.54837
6.99463
6.43237
5.88805
5.37967
4.91261
4.48567
4.09625
3.74125
3.41886
3.12891
2.87116
2.645
2.44831
2.27532
2.11794
1.96987
1.82807
1.69134
1.55959
1.43312
1.31172
1.19495
1.0826
0.974748
0.872475
0.777622
0.691369
0.613622
0.543626
0.480521
0.423457
0.37179
0.325118
0.28312
0.245523
0.21204
0.182188
0.155359
0.131059
0.109038
0.0891559
0.0713267
0.0553982
0.0411911
0.0284058
0.0166335
0.00548135
0.497276
1.51094
2.57985
3.72985
4.96574
6.25579
7.51828
8.62894
9.46759
9.98392
10.2008
10.1677
9.94322
9.58333
9.12484
8.59361
8.01115
7.39459
6.77028
6.17264
5.62341
5.1251
4.67296
4.26252
3.88889
3.54965
3.24528
2.97587
2.74154
2.54088
2.36675
2.20805
2.05688
1.91053
1.76823
1.63045
1.49814
1.37099
1.24838
1.12998
1.0156
0.906651
0.805937
0.715135
0.633889
0.561053
0.495552
0.436325
0.382635
0.334133
0.290512
0.25154
0.217
0.18634
0.158776
0.133705
0.110927
0.090354
0.0719608
0.05562
0.0411726
0.0282927
0.0165265
0.0054453
0.508366
1.54921
2.66102
3.88103
5.22416
6.66136
8.09533
9.36168
10.294
10.8329
11.0254
10.9391
10.6479
10.2224
9.70036
9.10628
8.46174
7.7789
7.0871
6.43334
5.84444
5.31739
4.84219
4.41281
4.02194
3.66646
3.34828
3.06772
2.8259
2.62313
2.45053
2.29244
2.13895
1.98844
1.8407
1.69693
1.55909
1.4266
1.29848
1.17434
1.05338
0.937387
0.830673
0.735606
0.651284
0.575988
0.508446
0.447324
0.391784
0.341603
0.296485
0.256251
0.220828
0.189584
0.161455
0.135699
0.112211
0.0909903
0.0720804
0.0553895
0.040786
0.0279124
0.0162572
0.00535623
0.513704
1.57048
2.71525
3.99897
5.45095
7.04987
8.6834
10.1346
11.1693
11.7197
11.8743
11.721
11.3509
10.8544
10.2663
9.60743
8.90092
8.14833
7.38184
6.66861
6.04242
5.49006
4.99411
4.5482
4.14152
3.7701
3.43865
3.14716
2.89813
2.69527
2.52752
2.37215
2.21679
2.06234
1.90914
1.75922
1.61622
1.47883
1.34552
1.21607
1.08844
0.964775
0.851811
0.75286
0.665971
0.588596
0.519391
0.456639
0.399377
0.347655
0.301143
0.25972
0.223588
0.192016
0.163506
0.137122
0.112949
0.091106
0.0717123
0.0547237
0.0400438
0.027276
0.0158334
0.00521637
0.51293
1.57344
2.73963
4.07847
5.63877
7.41454
9.28181
10.9561
12.1021
12.646
12.747
12.5117
12.048
11.4769
10.8215
10.0961
9.33
8.50436
7.65316
6.87639
6.21715
5.64402
5.1295
4.66991
4.2489
3.86131
3.51717
3.21474
2.95807
2.7573
2.59868
2.44838
2.29104
2.13276
1.97394
1.81743
1.66974
1.52797
1.38975
1.25563
1.12119
0.98885
0.869258
0.766978
0.678137
0.59904
0.528585
0.464464
0.405547
0.352417
0.304595
0.261995
0.225328
0.193743
0.165048
0.138051
0.113193
0.0907406
0.0708809
0.0536374
0.0389572
0.0263953
0.0152638
0.00502824
0.505835
1.5572
2.73175
4.11442
5.77944
7.7467
9.88896
11.8371
13.103
13.6119
13.6422
13.3091
12.7341
12.0874
11.365
10.5707
9.75109
8.84944
7.89916
7.05382
6.36867
5.78066
5.24903
4.77932
4.34554
3.94067
3.58471
3.27108
3.00528
2.809
2.66524
2.52254
2.36222
2.2002
2.03549
1.87149
1.71986
1.57432
1.43132
1.2935
1.15214
1.00957
0.882814
0.778051
0.688013
0.607468
0.536235
0.471008
0.410404
0.356015
0.306953
0.263104
0.226074
0.194877
0.166215
0.138561
0.112987
0.0899321
0.0696078
0.0521426
0.037537
0.0252826
0.0145586
0.00479482
0.492383
1.52133
2.6898
4.1021
5.86399
8.03538
10.5017
12.7925
14.1853
14.6146
14.5585
14.1116
13.4021
12.6838
11.8966
11.0288
10.1673
9.18746
8.11705
7.197
6.4975
5.90199
5.35309
4.87801
4.43318
4.00848
3.64229
3.31706
3.03893
2.84976
2.72871
2.59638
2.43056
2.26513
2.09424
1.92114
1.76679
1.61823
1.4702
1.33031
1.18193
1.02677
0.892143
0.786208
0.695891
0.613991
0.542561
0.476506
0.414026
0.358578
0.308348
0.263043
0.225824
0.195549
0.167163
0.138714
0.11237
0.0887183
0.0679114
0.0502482
0.0357927
0.0239517
0.0137297
0.00451969
0.472721
1.46597
2.61284
4.03743
5.88296
8.26682
11.1141
13.8418
15.3659
15.6469
15.4938
14.9187
14.0421
13.2644
12.4172
11.4659
10.5833
9.52439
8.30268
7.30057
6.60498
6.01098
5.44144
4.9678
4.51394
4.06447
3.69116
3.35391
3.05766
2.87844
2.79111
2.67205
2.49586
2.32806
2.15075
1.96578
1.81079
1.66013
1.50616
1.3668
1.21144
1.04012
0.896729
0.791649
0.702154
0.618648
0.547801
0.481224
0.416429
0.360246
0.308938
0.261769
0.224534
0.195914
0.168076
0.138553
0.111368
0.087139
0.0658072
0.0479592
0.0337336
0.0224177
0.0127906
0.00420729
0.447177
1.39182
2.50086
3.91735
5.82668
8.42404
11.7163
15.0117
16.6668
16.6941
16.4464
15.7322
14.6406
13.8293
12.9295
11.8743
11.0054
9.8691
8.44982
7.35723
6.69371
6.11181
5.51266
5.05094
4.59057
4.10748
3.73291
3.38347
3.05938
2.89315
2.85517
2.75231
2.55715
2.38955
2.20586
2.00434
1.85226
1.70066
1.53854
1.40391
1.24187
1.04902
0.89582
0.794699
0.707318
0.621354
0.552227
0.485492
0.417539
0.361172
0.308929
0.259183
0.222109
0.196164
0.16918
0.138086
0.109994
0.0852405
0.0633062
0.0452764
0.0313682
0.0206979
0.0117571
0.00386288
0.416254
1.30017
2.35493
3.74018
5.68589
8.4865
12.2918
16.3378
18.1166
17.7303
17.4165
16.5579
15.1774
14.3807
13.4389
12.2414
11.4428
10.2345
8.54922
7.35716
6.76823
6.21041
5.5634
5.13026
4.66671
4.13489
3.76966
3.40854
3.04108
2.89101
2.92463
2.84073
2.61228
2.45038
2.2608
2.03495
1.89187
1.74075
1.56602
1.44286
1.27486
1.05253
0.888369
0.795881
0.712081
0.621814
0.556162
0.489729
0.417139
0.361541
0.308605
0.255116
0.218381
0.196542
0.17075
0.137272
0.108251
0.0830808
0.0604141
0.0421955
0.0287052
0.0188127
0.0106465
0.00349261
0.3806
1.19279
2.1772
3.50593
5.45244
8.43004
12.8143
17.8681
19.7534
18.7127
18.4071
17.4078
15.6232
14.9247
13.9557
12.5463
11.9086
10.6391
8.58725
7.28735
6.83591
6.31502
5.58719
5.20964
4.74742
4.14185
3.80433
3.43324
2.99844
2.86772
3.00465
2.94199
2.6573
2.51175
2.31755
2.05465
1.93068
1.78182
1.58634
1.4853
1.3127
1.04915
0.87296
0.79601
0.717386
0.61941
0.560019
0.494494
0.414794
0.361593
0.308357
0.249298
0.213092
0.19737
0.173135
0.135991
0.106133
0.080738
0.0571279
0.038707
0.0257532
0.0167862
0.00947797
0.00310334
0.340978
1.07192
1.97087
3.21657
5.12021
8.2273
13.2432
19.6664
21.628
19.5745
19.4277
18.3035
15.9346
15.4736
14.4964
12.7562
12.4207
11.1087
8.54411
7.13089
6.90796
6.43693
5.5729
5.29449
4.83976
4.12015
3.84103
3.46361
2.92551
2.81716
3.10227
3.0623
2.68565
2.57558
2.37907
2.0588
1.97042
1.82601
1.5958
1.53344
1.3585
1.03669
0.847733
0.796311
0.724508
0.613032
0.564363
0.50055
0.409751
0.361655
0.308732
0.241325
0.205867
0.199072
0.176775
0.134007
0.10363
0.0783198
0.0534314
0.0347955
0.0225212
0.0146473
0.00827193
0.00270236
0.298222
0.940109
1.74007
2.87622
4.68617
7.84885
13.5173
21.8174
23.8088
20.2142
20.4981
19.2804
16.048
16.0484
15.0872
12.8212
13.0048
11.6789
8.39154
6.86618
7.00085
6.59151
5.50262
5.39269
4.95367
4.05682
3.88563
3.50817
2.81422
2.73076
3.22705
3.20991
2.68698
2.64498
2.44988
2.04035
2.01386
1.87657
1.58861
1.59037
1.4165
1.01194
0.810315
0.798572
0.735157
0.600861
0.569986
0.508952
0.4008
0.362188
0.310489
0.23062
0.196183
0.202208
0.18223
0.130922
0.100741
0.0759762
0.0492879
0.0304411
0.0190189
0.0124308
0.00704965
0.00229707
0.2532
0.800101
1.48967
2.49116
4.15154
7.26539
13.5468
24.4321
26.3881
20.4831
21.6546
20.3927
15.8706
16.683
15.7675
12.6668
13.6969
12.3976
8.08985
6.46629
7.13778
6.79941
5.34886
5.51568
5.10307
3.9321
3.94651
3.57878
2.65383
2.59688
3.39178
3.39577
2.64573
2.72489
2.53654
1.98884
2.06519
1.93824
1.55612
1.66035
1.49236
0.970324
0.757747
0.805303
0.751609
0.580079
0.578035
0.521154
0.386092
0.363863
0.314655
0.216373
0.183344
0.207516
0.19021
0.126114
0.0974964
0.0739131
0.0446292
0.0256202
0.0152571
0.0101787
0.0058325
0.00189462
0.206771
0.654691
1.22503
2.06964
3.52279
6.45135
13.2027
27.6543
29.4902
20.168
22.9571
21.7199
15.2697
17.4296
16.5948
12.1851
14.547
13.328
7.58435
5.89832
7.35037
7.08813
5.07106
5.68015
5.30725
3.71699
4.03564
3.69134
2.43027
2.39999
3.61324
3.63448
2.53924
2.82293
2.64847
1.88913
2.13071
2.01784
1.48572
1.74928
1.59352
0.905511
0.68645
0.819928
0.776872
0.546501
0.59017
0.539145
0.362902
0.367655
0.322604
0.197479
0.166439
0.215953
0.201619
0.118654
0.093985
0.0724075
0.039341
0.0203098
0.0112471
0.00794096
0.00464098
0.00150155
0.159747
0.506594
0.951705
1.62156
2.81247
5.39028
12.3044
31.6684
33.2816
18.9713
24.5004
23.3746
14.0586
18.3649
17.6502
11.2239
15.6247
14.5523
6.80096
5.1232
7.6804
7.49397
4.61124
5.91002
5.59251
3.37017
4.16987
3.86676
2.1255
2.11977
3.91315
3.94528
2.33547
2.95055
2.79875
1.71977
2.21958
2.12496
1.35958
1.86532
1.72961
0.808863
0.592208
0.846967
0.814881
0.494129
0.608782
0.565608
0.327341
0.374971
0.336122
0.172459
0.144315
0.228749
0.217599
0.107214
0.0903982
0.0718217
0.0332444
0.0144923
0.00700052
0.00577759
0.00349359
0.00112363
0.112866
0.358331
0.675157
1.15783
2.03946
4.08244
10.6037
36.707
37.9836
16.4857
26.4262
25.5105
11.9794
19.5988
19.0456
9.5727
17.0253
16.1746
5.64121
4.09566
8.18149
8.06435
3.88884
6.23911
5.99407
2.8342
4.3728
4.13174
1.71672
1.73017
4.31901
4.3535
1.99018
3.12444
3.00515
1.45108
2.34475
2.27275
1.15302
2.01965
1.91283
0.668838
0.470219
0.892216
0.870744
0.414607
0.637253
0.604104
0.274002
0.38782
0.357485
0.139373
0.115546
0.247454
0.239585
0.0899495
0.0870876
0.0726164
0.0260718
0.00816543
0.00252768
0.00375983
0.00240558
0.000765958
0.0667708
0.212138
0.400462
0.68971
1.22847
2.55493
7.76673
43.06
43.888
12.1652
28.9388
28.3329
8.68358
21.2839
20.9314
6.94735
18.8779
18.3246
3.97653
2.76491
8.9205
8.86068
2.7946
6.71426
6.55828
2.03119
4.67687
4.51953
1.17568
1.19839
4.86504
4.89211
1.44377
3.36823
3.29121
1.04281
2.52415
2.47884
0.83269
2.22742
2.15833
0.470308
0.315197
0.962903
0.951037
0.296593
0.680296
0.659276
0.195544
0.409024
0.389518
0.0957225
0.0784034
0.273987
0.269369
0.0643616
0.0846398
0.0753599
0.017439
0.00135376
-0.00216513
0.00197211
0.00138755
0.000433559
0.0219965
0.0699053
0.13208
0.227953
0.408411
0.874578
3.35324
51.0837
51.3745
5.29194
32.3241
32.1086
3.70871
23.6276
23.5053
2.97178
21.3553
21.1604
1.64201
1.07587
9.97857
9.96174
1.18367
7.39903
7.34492
0.857804
5.12612
5.0705
0.467985
0.48387
5.59295
5.60364
0.617503
3.7145
3.68753
0.441544
2.78201
2.76642
0.354449
2.50886
2.48461
0.193794
0.121566
1.06779
1.06414
0.125043
0.744337
0.73706
0.0822218
0.442474
0.435652
0.0383468
0.0308443
0.310678
0.309175
0.0271471
0.0839689
0.0807317
0.00681288
-0.00587408
-0.00708003
0.000514279
0.000444149
0.000132537
)
;

boundaryField
{
    left
    {
        type            calculated;
        value           uniform 0;
    }
    right
    {
        type            calculated;
        value           uniform 0;
    }
    interface
    {
        type            calculated;
        value           nonuniform List<scalar> 
64
(
0.0219965
0.0699053
0.13208
0.227953
0.408411
0.874578
3.35324
51.0837
51.3745
5.29194
32.3241
32.1086
3.70871
23.6276
23.5053
2.97178
21.3553
21.1604
1.64201
1.07587
9.97857
9.96174
1.18367
7.39903
7.34492
0.857804
5.12612
5.0705
0.467985
0.48387
5.59295
5.60364
0.617503
3.7145
3.68753
0.441544
2.78201
2.76642
0.354449
2.50886
2.48461
0.193794
0.121566
1.06779
1.06414
0.125043
0.744337
0.73706
0.0822218
0.442474
0.435652
0.0383468
0.0308443
0.310678
0.309175
0.0271471
0.0839689
0.0807317
0.00681288
-0.00587408
-0.00708003
0.000514279
0.000444149
0.000132537
)
;
    }
    bottom
    {
        type            calculated;
        value           nonuniform List<scalar> 
64
(
0.0222181
0.0664075
0.109834
0.15192
0.192008
0.229369
0.263243
0.292901
0.31772
0.337248
0.351257
0.359751
0.362962
0.361309
0.355353
0.345746
0.333184
0.318362
0.301946
0.284544
0.266687
0.248819
0.231297
0.214389
0.19829
0.183121
0.168953
0.155804
0.143657
0.132466
0.122163
0.112668
0.103896
0.0957635
0.088196
0.081128
0.074506
0.0682882
0.0624435
0.0569498
0.0517924
0.0469615
0.0424505
0.0382533
0.0343633
0.0307721
0.027469
0.0244411
0.0216741
0.0191521
0.0168585
0.0147766
0.0128891
0.0111794
0.00963064
0.00822688
0.00695245
0.00579217
0.00473114
0.00375459
0.00284765
0.00199515
0.00118163
0.00039133
)
;
    }
    defaultFaces
    {
        type            empty;
    }
}


// ************************************************************************* //
