/*--------------------------------*- C++ -*----------------------------------*\
| =========                 |                                                 |
| \\      /  F ield         | OpenFOAM: The Open Source CFD Toolbox           |
|  \\    /   O peration     | Version:  5.x                                   |
|   \\  /    A nd           | Web:      www.OpenFOAM.org                      |
|    \\/     M anipulation  |                                                 |
\*---------------------------------------------------------------------------*/
FoamFile
{
    version     2.0;
    format      ascii;
    class       volScalarField;
    location    "10.9";
    object      gradTy;
}
// * * * * * * * * * * * * * * * * * * * * * * * * * * * * * * * * * * * * * //

dimensions      [0 -1 0 1 0 0 0];

internalField   nonuniform List<scalar> 
2048
(
-20.1544
-20.0575
-19.8649
-19.5786
-19.2022
-18.7409
-18.2013
-17.5919
-16.9228
-16.2051
-15.4507
-14.6721
-13.8811
-13.0888
-12.3055
-11.5398
-10.7988
-10.0884
-9.41257
-8.77409
-8.17445
-7.61405
-7.09246
-6.60853
-6.16065
-5.74687
-5.36503
-5.0129
-4.68824
-4.3889
-4.11286
-3.85826
-3.62344
-3.40692
-3.20741
-3.02375
-2.85493
-2.70004
-2.55823
-2.42874
-2.31082
-2.20376
-2.10684
-2.0194
-1.94073
-1.8702
-1.80715
-1.75097
-1.70107
-1.65691
-1.61797
-1.58378
-1.55388
-1.52787
-1.5054
-1.48612
-1.46973
-1.45598
-1.44463
-1.43548
-1.42836
-1.42314
-1.41972
-1.41802
-20.2328
-20.1351
-19.9406
-19.6514
-19.271
-18.8041
-18.2577
-17.6403
-16.9621
-16.2347
-15.4704
-14.6821
-13.882
-13.0816
-12.2912
-11.5197
-10.7742
-10.0604
-9.38236
-8.74268
-8.14269
-7.58267
-7.06198
-6.57936
-6.13306
-5.72102
-5.341
-4.99067
-4.66775
-4.37005
-4.0955
-3.84225
-3.60863
-3.39316
-3.19457
-3.01174
-2.84366
-2.68944
-2.54826
-2.41937
-2.30203
-2.19553
-2.09918
-2.01227
-1.93415
-1.86413
-1.80157
-1.74586
-1.69642
-1.65267
-1.61412
-1.58028
-1.55071
-1.525
-1.50279
-1.48375
-1.46758
-1.45401
-1.44282
-1.43381
-1.4268
-1.42166
-1.41829
-1.41663
-20.3817
-20.2824
-20.0847
-19.7902
-19.402
-18.9249
-18.3655
-17.7326
-17.0369
-16.2908
-15.5075
-14.7007
-13.8832
-13.0672
-12.2634
-11.4808
-10.7267
-10.0066
-9.32444
-8.6826
-8.08209
-7.52287
-7.00402
-6.52398
-6.08075
-5.67207
-5.29552
-4.94865
-4.62907
-4.33448
-4.06278
-3.81208
-3.5807
-3.36722
-3.17037
-2.98907
-2.82237
-2.66942
-2.52942
-2.40166
-2.28541
-2.17998
-2.08468
-1.99881
-1.9217
-1.85266
-1.79105
-1.73623
-1.68763
-1.64467
-1.60685
-1.57368
-1.54473
-1.51958
-1.49788
-1.47929
-1.46353
-1.45031
-1.43943
-1.43067
-1.42387
-1.41889
-1.41562
-1.41401
-20.5928
-20.4915
-20.2894
-19.9877
-19.5889
-19.0973
-18.5193
-17.8642
-17.1433
-16.3702
-15.5594
-14.7257
-13.8833
-13.045
-12.2221
-11.4239
-10.6577
-9.9289
-9.24119
-8.59655
-7.99558
-7.43777
-6.92174
-6.44553
-6.0068
-5.603
-5.23148
-4.88958
-4.57476
-4.2846
-4.01694
-3.76982
-3.54161
-3.33088
-3.13644
-2.95728
-2.79249
-2.64129
-2.50293
-2.37674
-2.26201
-2.15808
-2.06427
-1.97987
-1.90418
-1.83654
-1.77626
-1.72271
-1.67529
-1.63345
-1.59666
-1.56444
-1.53636
-1.512
-1.49101
-1.47306
-1.45786
-1.44514
-1.43469
-1.42629
-1.41978
-1.41502
-1.4119
-1.41036
-20.8588
-20.7552
-20.5481
-20.238
-19.8264
-19.3167
-18.7153
-18.0316
-17.2781
-16.47
-15.6235
-14.7552
-13.8808
-13.0141
-12.1671
-11.3493
-10.5681
-9.82866
-9.13436
-8.48665
-7.88557
-7.32995
-6.81785
-6.34679
-5.91399
-5.51653
-5.15148
-4.81595
-4.5072
-4.22267
-3.96007
-3.71745
-3.49314
-3.28581
-3.09432
-2.91776
-2.75531
-2.60625
-2.4699
-2.34563
-2.23279
-2.13073
-2.03878
-1.95622
-1.88234
-1.81644
-1.75784
-1.70588
-1.65995
-1.6195
-1.584
-1.55297
-1.52597
-1.5026
-1.48249
-1.46534
-1.45084
-1.43874
-1.42882
-1.42088
-1.41474
-1.41026
-1.40733
-1.40588
-21.173
-21.0673
-20.8552
-20.536
-20.1101
-19.5796
-18.9503
-18.232
-17.4387
-16.5876
-15.6974
-14.7871
-13.874
-12.9733
-12.0976
-11.2568
-10.4582
-9.70675
-9.00527
-8.35462
-7.75406
-7.20168
-6.69477
-6.23023
-5.80477
-5.41507
-5.05788
-4.73003
-4.42856
-4.15072
-3.89412
-3.65674
-3.43696
-3.23352
-3.0454
-2.87179
-2.71199
-2.56536
-2.43131
-2.30926
-2.1986
-2.09873
-2.00895
-1.92856
-1.85682
-1.79299
-1.73637
-1.68628
-1.6421
-1.60328
-1.56929
-1.53965
-1.51392
-1.49169
-1.47262
-1.45639
-1.44272
-1.43135
-1.42206
-1.41464
-1.40893
-1.40478
-1.40207
-1.40074
-21.5295
-21.422
-21.2054
-20.8776
-20.4366
-19.8832
-19.222
-18.4633
-17.6229
-16.7207
-15.7788
-14.819
-13.8609
-12.9211
-12.0128
-11.1461
-10.3283
-9.56378
-8.85496
-8.20187
-7.60284
-7.05496
-6.55466
-6.09809
-5.68139
-5.30084
-4.95282
-4.6339
-4.34084
-4.07067
-3.82087
-3.58936
-3.37458
-3.17539
-2.99092
-2.82052
-2.66359
-2.51961
-2.38806
-2.26843
-2.1602
-2.06276
-1.97545
-1.89753
-1.82822
-1.76674
-1.71236
-1.66438
-1.62219
-1.5852
-1.55291
-1.52483
-1.50051
-1.47958
-1.46166
-1.44647
-1.43371
-1.42315
-1.41457
-1.40775
-1.40254
-1.39876
-1.3963
-1.3951
-21.9225
-21.8139
-21.5942
-21.2588
-20.8033
-20.2256
-19.529
-18.724
-17.8288
-16.8671
-15.8654
-14.8488
-13.8397
-12.856
-11.9117
-11.0167
-10.1782
-9.40019
-8.6843
-8.02968
-7.4335
-6.89166
-6.39952
-5.95242
-5.54592
-5.17585
-4.83828
-4.52945
-4.24585
-3.98426
-3.74195
-3.51681
-3.30737
-3.11265
-2.93202
-2.76495
-2.61103
-2.46982
-2.34091
-2.22387
-2.11823
-2.02345
-1.93886
-1.86368
-1.79707
-1.7382
-1.68629
-1.64063
-1.6006
-1.56563
-1.53519
-1.50881
-1.48605
-1.46651
-1.44985
-1.43577
-1.42401
-1.41434
-1.40653
-1.40037
-1.3957
-1.39234
-1.39017
-1.3891
-22.3463
-22.238
-22.0171
-21.6765
-21.2078
-20.6055
-19.8704
-19.0131
-18.055
-17.025
-15.9547
-14.8741
-13.8082
-12.7764
-11.7931
-10.8681
-10.008
-9.21632
-8.49403
-7.83919
-7.24754
-6.71351
-6.23123
-5.79515
-5.40024
-5.04194
-4.716
-4.41839
-4.14526
-3.89307
-3.65886
-3.44046
-3.23656
-3.04643
-2.86967
-2.706
-2.55513
-2.41676
-2.29056
-2.1762
-2.0733
-1.98135
-1.8997
-1.82751
-1.76384
-1.70781
-1.65857
-1.61542
-1.57771
-1.54489
-1.51643
-1.49187
-1.47077
-1.45272
-1.43739
-1.4245
-1.4138
-1.40507
-1.39808
-1.39264
-1.38856
-1.38565
-1.38379
-1.38288
-22.7954
-22.689
-22.4701
-22.1276
-21.6487
-21.0224
-20.2462
-19.3304
-18.3004
-17.1922
-16.0444
-14.8923
-13.7642
-12.6808
-11.6562
-10.6998
-9.81756
-9.01248
-8.28484
-7.6315
-7.04642
-6.52221
-6.0516
-5.62811
-5.24612
-4.90078
-4.58761
-4.30227
-4.04058
-3.79858
-3.57299
-3.36158
-3.16326
-2.97767
-2.80473
-2.64442
-2.49661
-2.36109
-2.23762
-2.12598
-2.02588
-1.93692
-1.85842
-1.78945
-1.72897
-1.67598
-1.6296
-1.58909
-1.55383
-1.52327
-1.4969
-1.47426
-1.4549
-1.43842
-1.42448
-1.41282
-1.40322
-1.39547
-1.38937
-1.38468
-1.38123
-1.37881
-1.37728
-1.37654
-23.2643
-23.1619
-22.9489
-22.6096
-22.1247
-21.4765
-20.657
-19.6759
-18.564
-17.3667
-16.1319
-14.901
-13.7058
-12.5677
-11.5002
-10.5116
-9.60696
-8.78895
-8.05734
-7.40766
-6.83159
-6.31945
-5.8624
-5.453
-5.08516
-4.75388
-4.45451
-4.18247
-3.93317
-3.70214
-3.4856
-3.28128
-3.08845
-2.90723
-2.73796
-2.58091
-2.4361
-2.30338
-2.18262
-2.07367
-1.97641
-1.89055
-1.81541
-1.74991
-1.69284
-1.64308
-1.59971
-1.56196
-1.52924
-1.50103
-1.47684
-1.4562
-1.43865
-1.42378
-1.41127
-1.40087
-1.3924
-1.38567
-1.38048
-1.3766
-1.37382
-1.37192
-1.37076
-1.37019
-23.7474
-23.6517
-23.4494
-23.1196
-22.635
-21.9685
-21.1043
-20.0505
-18.8449
-17.5463
-16.2143
-14.8973
-13.6307
-12.4358
-11.3243
-10.3032
-9.37633
-8.54602
-7.81212
-7.16874
-6.60454
-6.10692
-5.66534
-5.27147
-4.91887
-4.6026
-4.31798
-4.06019
-3.82426
-3.60499
-3.39789
-3.20059
-3.01297
-2.83582
-2.66996
-2.51603
-2.37414
-2.24415
-2.12601
-2.01969
-1.92524
-1.84257
-1.77101
-1.70924
-1.65581
-1.60946
-1.5692
-1.5343
-1.50419
-1.47839
-1.45643
-1.43786
-1.42219
-1.40898
-1.3979
-1.38877
-1.38145
-1.37576
-1.37152
-1.36848
-1.36642
-1.36507
-1.36429
-1.36391
-24.239
-24.1531
-23.9676
-23.6552
-23.1792
-22.5
-21.5906
-20.4555
-19.1422
-17.7285
-16.2884
-14.8783
-13.5368
-12.2839
-11.1282
-10.0747
-9.12599
-8.28394
-7.54965
-6.9158
-6.36682
-5.88633
-5.46214
-5.0851
-4.74861
-4.44813
-4.17912
-3.93649
-3.71495
-3.5083
-3.31095
-3.12041
-2.93754
-2.76402
-2.60125
-2.45025
-2.31119
-2.18384
-2.06821
-1.9644
-1.87266
-1.79325
-1.72551
-1.66777
-1.61819
-1.57541
-1.53837
-1.50636
-1.47889
-1.45554
-1.43586
-1.41941
-1.40567
-1.39414
-1.3845
-1.37663
-1.37045
-1.36583
-1.36257
-1.3604
-1.3591
-1.35833
-1.35796
-1.35778
-24.7335
-24.6608
-24.4989
-24.2137
-23.757
-23.0731
-22.1193
-20.893
-19.455
-17.9102
-16.351
-14.8408
-13.422
-12.1113
-10.9118
-9.82674
-8.85645
-8.00289
-7.27031
-6.64993
-6.12011
-5.65945
-5.25446
-4.8954
-4.57559
-4.29152
-4.03884
-3.81223
-3.60618
-3.41318
-3.22587
-3.04156
-2.86275
-2.69231
-2.5322
-2.38397
-2.24768
-2.12283
-2.0096
-1.90811
-1.81888
-1.74279
-1.67917
-1.62578
-1.58029
-1.54121
-1.50745
-1.47833
-1.45351
-1.43264
-1.41527
-1.40099
-1.38923
-1.37941
-1.37117
-1.36453
-1.35949
-1.35592
-1.35368
-1.35242
-1.35192
-1.35177
-1.35183
-1.35186
-25.2252
-25.1696
-25.039
-24.7922
-24.368
-23.6909
-22.695
-21.366
-19.7816
-18.0879
-16.3983
-14.7814
-13.2844
-11.9175
-10.6753
-9.55995
-8.56853
-7.7029
-6.9742
-6.37228
-5.86629
-5.42809
-5.04396
-4.70383
-4.40088
-4.13362
-3.89796
-3.68808
-3.49879
-3.32072
-3.1437
-2.96472
-2.78906
-2.62106
-2.4631
-2.31749
-2.18397
-2.06149
-1.9505
-1.8511
-1.76406
-1.69131
-1.6322
-1.58358
-1.54238
-1.50711
-1.47668
-1.45041
-1.42822
-1.40983
-1.39476
-1.38271
-1.37301
-1.36489
-1.35801
-1.35253
-1.3486
-1.3461
-1.34489
-1.34459
-1.34493
-1.34543
-1.34595
-1.3462
-25.7087
-25.674
-25.5829
-25.3873
-25.0121
-24.3569
-23.3241
-21.8784
-20.1199
-18.2569
-16.4264
-14.6964
-13.1221
-11.7027
-10.4191
-9.27554
-8.26348
-7.38372
-6.66113
-6.08409
-5.6075
-5.19402
-4.83224
-4.51182
-4.22537
-3.97516
-3.75713
-3.56449
-3.39342
-3.23204
-3.06556
-2.89044
-2.71677
-2.55055
-2.3941
-2.25106
-2.12043
-2.00011
-1.89124
-1.79364
-1.70826
-1.63885
-1.5848
-1.54145
-1.50472
-1.47335
-1.44625
-1.42274
-1.40313
-1.38721
-1.37444
-1.36466
-1.3571
-1.3507
-1.34507
-1.34067
-1.33783
-1.33639
-1.33625
-1.33694
-1.33818
-1.33936
-1.34035
-1.34084
-26.1786
-26.1688
-26.1256
-25.9954
-25.6884
-25.0752
-24.0145
-22.4359
-20.466
-18.4117
-16.4316
-14.5816
-12.9335
-11.468
-10.1439
-8.97515
-7.94314
-7.04458
-6.33033
-5.78679
-5.34634
-4.959
-4.62082
-4.32083
-4.04969
-3.81666
-3.61695
-3.44164
-3.29055
-3.1483
-2.99266
-2.81909
-2.64602
-2.48101
-2.32522
-2.18485
-2.05743
-1.93893
-1.83212
-1.73606
-1.65145
-1.58536
-1.53716
-1.49973
-1.46754
-1.44013
-1.41638
-1.39542
-1.37833
-1.36489
-1.35434
-1.34691
-1.34163
-1.33695
-1.33241
-1.32899
-1.32721
-1.32683
-1.32778
-1.32952
-1.3317
-1.3336
-1.33509
-1.33582
-26.63
-26.6486
-26.6619
-26.6119
-26.3956
-25.8504
-24.7767
-23.0461
-20.8138
-18.5452
-16.411
-14.4322
-12.7172
-11.2156
-9.85009
-8.66084
-7.61039
-6.68394
-5.98035
-5.48208
-5.08602
-4.7245
-4.41106
-4.13245
-3.87416
-3.6585
-3.47807
-3.31938
-3.19044
-3.07084
-2.92645
-2.75076
-2.57678
-2.41268
-2.2563
-2.11898
-1.99542
-1.8781
-1.77347
-1.67871
-1.59347
-1.53067
-1.48946
-1.45877
-1.43103
-1.40762
-1.38724
-1.36853
-1.35389
-1.34295
-1.33451
-1.32949
-1.3267
-1.32376
-1.32007
-1.31748
-1.31675
-1.31742
-1.3195
-1.32234
-1.32553
-1.32818
-1.33017
-1.33116
-27.0584
-27.1087
-27.1862
-27.2318
-27.1313
-26.687
-25.6237
-23.7199
-21.1533
-18.6488
-16.3633
-14.2418
-12.4718
-10.9495
-9.5373
-8.33515
-7.26969
-6.29891
-5.60866
-5.17219
-4.83075
-4.49157
-4.20416
-3.9486
-3.69862
-3.50089
-3.34131
-3.19712
-3.09301
-3.00119
-2.86873
-2.68512
-2.50879
-2.34593
-2.18697
-2.0535
-1.93496
-1.81765
-1.71558
-1.62213
-1.53398
-1.47448
-1.44195
-1.41905
-1.39534
-1.37598
-1.35908
-1.34206
-1.32985
-1.32151
-1.31492
-1.31243
-1.31243
-1.31128
-1.30806
-1.30615
-1.30647
-1.30817
-1.31141
-1.31542
-1.31967
-1.32313
-1.32563
-1.32687
-27.4598
-27.5443
-27.6929
-27.8488
-27.8917
-27.5892
-26.5721
-24.4732
-21.468
-18.7121
-16.2904
-14.0019
-12.1963
-10.6767
-9.20359
-8.00106
-6.92805
-5.88454
-5.21144
-4.86008
-4.58611
-4.26028
-4.00102
-3.77179
-3.52215
-3.34388
-3.20795
-3.07362
-2.99782
-2.94125
-2.82191
-2.62117
-2.44156
-2.28143
-2.11648
-1.98841
-1.87693
-1.75732
-1.65879
-1.56712
-1.47238
-1.41631
-1.39491
-1.38118
-1.36048
-1.34531
-1.33215
-1.31595
-1.30621
-1.3007
-1.2955
-1.2957
-1.29897
-1.29967
-1.29634
-1.29494
-1.29638
-1.29908
-1.30351
-1.30877
-1.31417
-1.31846
-1.32147
-1.32297
-27.8309
-27.9514
-28.1764
-28.4561
-28.6711
-28.5598
-27.6418
-25.3297
-21.7321
-18.7224
-16.2004
-13.7
-11.8897
-10.4085
-8.84378
-7.66196
-6.59658
-5.43261
-4.78316
-4.54983
-4.35978
-4.0291
-3.80222
-3.60569
-3.34268
-3.18734
-3.08012
-2.94673
-2.90392
-2.89334
-2.78934
-2.55689
-2.37434
-2.22044
-2.04353
-1.92366
-1.82262
-1.69647
-1.60345
-1.51493
-1.40767
-1.35545
-1.34875
-1.346
-1.32631
-1.31567
-1.30684
-1.29
-1.28297
-1.28074
-1.27612
-1.27923
-1.28646
-1.28917
-1.28483
-1.2838
-1.28652
-1.29014
-1.29579
-1.30241
-1.30904
-1.3142
-1.3177
-1.31945
-28.1691
-28.3265
-28.6314
-29.0459
-29.4617
-29.5993
-28.8565
-26.3253
-21.9046
-18.6654
-16.1108
-13.3166
-11.551
-10.163
-8.44717
-7.32151
-6.29274
-4.92977
-4.31634
-4.24701
-4.16249
-3.79383
-3.60792
-3.45588
-3.15629
-3.03101
-2.96139
-2.81299
-2.80972
-2.86034
-2.7758
-2.48863
-2.30613
-2.16522
-1.96596
-1.85914
-1.77409
-1.63374
-1.54989
-1.46756
-1.33823
-1.29099
-1.30405
-1.31465
-1.2924
-1.28706
-1.28373
-1.26384
-1.26008
-1.26196
-1.25651
-1.2629
-1.27511
-1.2801
-1.27335
-1.27263
-1.27693
-1.28132
-1.28824
-1.29635
-1.30429
-1.31035
-1.31433
-1.31632
-28.4727
-28.6667
-29.0527
-29.6101
-30.253
-30.7046
-30.2433
-27.5145
-21.9222
-18.5248
-16.0545
-12.8209
-11.1796
-9.96888
-7.99396
-6.98363
-6.04363
-4.35489
-3.8015
-3.95916
-4.00928
-3.54601
-3.41784
-3.331
-2.95624
-2.87449
-2.85763
-2.66691
-2.71289
-2.84576
-2.78823
-2.41031
-2.23569
-2.11967
-1.88021
-1.7947
-1.73458
-1.56667
-1.49848
-1.42809
-1.26154
-1.22176
-1.2616
-1.28877
-1.25786
-1.25945
-1.2637
-1.23679
-1.23748
-1.2449
-1.23627
-1.24656
-1.26514
-1.27289
-1.2616
-1.26133
-1.26772
-1.27258
-1.28083
-1.29058
-1.29997
-1.30693
-1.31135
-1.31356
-28.7407
-28.9699
-29.4358
-30.14
-31.0322
-31.8672
-31.8305
-28.9799
-21.6883
-18.2837
-16.0872
-12.1644
-10.7746
-9.87025
-7.45017
-6.65231
-5.89071
-3.67499
-3.22735
-3.69605
-3.92146
-3.27076
-3.23131
-3.24445
-2.73142
-2.71733
-2.77821
-2.50013
-2.61034
-2.8537
-2.83683
-2.31221
-2.16159
-2.09019
-1.7806
-1.73014
-1.7091
-1.49114
-1.44956
-1.40132
-1.17366
-1.14639
-1.22243
-1.27065
-1.22112
-1.23273
-1.2481
-1.20776
-1.2151
-1.23041
-1.21475
-1.22998
-1.25684
-1.26818
-1.24909
-1.24977
-1.25907
-1.26385
-1.27355
-1.28512
-1.29609
-1.30394
-1.30876
-1.31117
-28.9727
-29.2349
-29.7771
-30.627
-31.7837
-33.0715
-33.6447
-30.8466
-21.0582
-17.926
-16.2982
-11.2714
-10.3362
-9.93412
-6.76045
-6.33155
-5.89628
-2.83955
-2.58186
-3.46983
-3.92915
-2.9437
-3.04741
-3.21667
-2.46424
-2.55914
-2.73764
-2.29999
-2.49831
-2.88864
-2.93649
-2.17932
-2.0824
-2.08686
-1.65823
-1.6653
-1.70532
-1.40048
-1.40348
-1.39446
-1.06864
-1.06345
-1.18788
-1.26357
-1.1796
-1.20679
-1.239
-1.175
-1.19285
-1.21979
-1.19092
-1.21291
-1.25053
-1.26687
-1.23504
-1.23781
-1.25124
-1.25499
-1.26638
-1.27996
-1.2927
-1.3014
-1.30656
-1.30912
-29.1692
-29.4614
-30.0739
-31.0634
-32.4901
-34.2928
-35.7047
-33.3014
-19.8189
-17.4389
-16.8244
-10.0256
-9.86538
-10.2601
-5.8383
-6.02533
-6.15219
-1.77251
-1.85424
-3.29452
-4.07484
-2.52683
-2.86523
-3.27824
-2.12768
-2.39979
-2.75774
-2.04772
-2.37273
-2.95502
-3.10893
-1.98911
-1.99691
-2.12506
-1.49952
-1.60011
-1.73468
-1.28434
-1.36057
-1.4182
-0.937497
-0.971651
-1.15951
-1.27208
-1.12927
-1.18151
-1.23951
-1.13585
-1.1707
-1.21497
-1.16327
-1.19509
-1.24653
-1.27024
-1.21828
-1.22537
-1.24466
-1.24579
-1.2593
-1.27511
-1.28985
-1.29929
-1.30472
-1.3074
-29.3314
-29.6496
-30.3246
-31.4421
-33.1329
-35.496
-38.0116
-36.6194
-17.662
-16.8174
-17.8681
-8.25301
-9.36608
-10.993
-4.55318
-5.73772
-6.79115
-0.361338
-1.03857
-3.1848
-4.41809
-1.96321
-2.68442
-3.47394
-1.68134
-2.23981
-2.87037
-1.71585
-2.23001
-3.05624
-3.38541
-1.70857
-1.90455
-2.22751
-1.2842
-1.53477
-1.81395
-1.12721
-1.32117
-1.48801
-0.766998
-0.870316
-1.13898
-1.30261
-1.06408
-1.15682
-1.25416
-1.0863
-1.14869
-1.21878
-1.12951
-1.17634
-1.24514
-1.28012
-1.19709
-1.21241
-1.23997
-1.23593
-1.25234
-1.27057
-1.28762
-1.29763
-1.30324
-1.306
-29.4608
-29.8007
-30.5286
-31.7582
-33.6937
-36.6355
-40.5342
-41.1994
-14.149
-16.0697
-19.7194
-5.69878
-8.84687
-12.3395
-2.71393
-5.47314
-8.00122
1.55743
-0.139757
-3.15329
-5.04185
-1.17006
-2.50597
-3.86779
-1.06632
-2.08095
-3.12096
-1.26485
-2.06836
-3.19316
-3.81055
-1.29039
-1.80594
-2.42682
-0.982725
-1.46996
-1.96708
-0.906479
-1.28567
-1.62586
-0.537932
-0.760048
-1.12781
-1.36403
-0.975256
-1.13286
-1.28941
-1.0205
-1.12703
-1.2352
-1.08634
-1.15666
-1.24657
-1.29904
-1.16898
-1.19905
-1.23805
-1.22487
-1.24558
-1.26635
-1.2861
-1.2964
-1.3021
-1.3049
-29.5594
-29.9166
-30.6867
-32.0084
-34.1562
-37.6558
-43.1878
-47.6099
-8.66746
-15.2262
-22.7834
-1.99866
-8.32445
-14.5879
-0.0481813
-5.23704
-10.0436
4.21691
0.817722
-3.20614
-6.0605
-0.0302911
-2.3333
-4.54937
-0.198747
-1.92704
-3.57271
-0.638741
-1.88996
-3.36171
-4.44703
-0.668173
-1.7038
-2.76865
-0.552998
-1.40721
-2.22762
-0.589986
-1.2546
-1.86231
-0.222923
-0.643781
-1.12684
-1.46861
-0.850331
-1.11004
-1.35432
-0.930109
-1.10621
-1.26977
-1.02904
-1.13643
-1.25074
-1.33057
-1.13042
-1.18565
-1.2401
-1.21186
-1.23919
-1.26243
-1.28542
-1.29561
-1.30131
-1.30411
-29.6296
-29.9993
-30.8006
-32.1918
-34.5076
-38.4958
-45.8051
-56.646
-0.376443
-14.3503
-27.612
3.35615
-7.82826
-18.1318
3.82267
-5.03686
-13.2744
7.94348
1.77718
-3.33595
-7.63019
1.61786
-2.17383
-5.64117
1.03813
-1.78524
-4.31157
0.240415
-1.70419
-3.54936
-5.38172
0.249394
-1.60398
-3.31534
0.0635881
-1.34943
-2.6415
-0.133132
-1.22873
-2.23904
0.216336
-0.528239
-1.13551
-1.63303
-0.672098
-1.08927
-1.46125
-0.803521
-1.08719
-1.33
-0.950993
-1.11666
-1.25716
-1.37958
-1.07653
-1.17296
-1.24772
-1.19579
-1.23347
-1.25879
-1.28578
-1.29526
-1.30089
-1.30364
-29.6739
-30.0517
-30.8732
-32.3101
-34.7405
-39.0954
-48.0979
-69.4005
11.858
-13.5535
-34.9404
11.0604
-7.40681
-23.4981
9.41277
-4.88352
-18.1696
13.1856
2.63268
-3.51163
-9.9616
3.99309
-2.04097
-7.30724
2.80328
-1.66765
-5.45206
1.47931
-1.53207
-3.73036
-6.73311
1.58557
-1.51703
-4.15018
0.946871
-1.30153
-3.27029
0.524574
-1.20926
-2.81182
0.832466
-0.425936
-1.15075
-1.87976
-0.417279
-1.07225
-1.62672
-0.624884
-1.07158
-1.42585
-0.843105
-1.09939
-1.2646
-1.45268
-1.00068
-1.16229
-1.26299
-1.1751
-1.22899
-1.25539
-1.28742
-1.29537
-1.30089
-1.30353
-29.6949
-30.0766
-30.9079
-32.367
-34.8546
-39.4073
-49.6088
-87.3475
29.5392
-13.014
-45.7271
22.0424
-7.13582
-31.3776
17.4052
-4.79344
-25.3543
20.548
3.20686
-3.66439
-13.3354
7.38515
-1.95667
-9.7628
5.30875
-1.59343
-7.14365
3.22147
-1.41228
-3.85931
-8.66028
3.50371
-1.45992
-5.38202
2.20334
-1.27131
-4.19482
1.46346
-1.19801
-3.65382
1.69648
-0.357671
-1.16533
-2.23866
-0.054932
-1.06161
-1.87227
-0.372917
-1.06183
-1.57012
-0.692971
-1.08797
-1.27056
-1.55855
-0.893846
-1.15551
-1.28827
-1.14743
-1.22633
-1.25189
-1.29046
-1.29569
-1.30114
-1.30357
)
;

boundaryField
{
    left
    {
        type            calculated;
        value           nonuniform List<scalar> 
32
(
-20.1544
-20.2328
-20.3817
-20.5928
-20.8588
-21.173
-21.5295
-21.9225
-22.3463
-22.7954
-23.2643
-23.7474
-24.239
-24.7335
-25.2252
-25.7087
-26.1786
-26.63
-27.0584
-27.4598
-27.8309
-28.1691
-28.4727
-28.7407
-28.9727
-29.1692
-29.3314
-29.4608
-29.5594
-29.6296
-29.6739
-29.6949
)
;
    }
    right
    {
        type            calculated;
        value           nonuniform List<scalar> 
32
(
-1.41802
-1.41663
-1.41401
-1.41036
-1.40588
-1.40074
-1.3951
-1.3891
-1.38288
-1.37654
-1.37019
-1.36391
-1.35778
-1.35186
-1.3462
-1.34084
-1.33582
-1.33116
-1.32687
-1.32297
-1.31945
-1.31632
-1.31356
-1.31117
-1.30912
-1.3074
-1.306
-1.3049
-1.30411
-1.30364
-1.30353
-1.30357
)
;
    }
    interface
    {
        type            calculated;
        value           nonuniform List<scalar> 
64
(
-29.6999
-30.0826
-30.9162
-32.3807
-34.8824
-39.4867
-50.0993
-97.8302
39.9549
-12.8355
-52.1202
28.485
-7.0494
-36.0433
22.099
-4.76669
-29.6074
24.8459
3.3962
-3.72358
-15.323
9.37653
-1.93
-11.2184
6.77674
-1.57007
-8.1483
4.23888
-1.37161
-3.90365
-9.79053
4.63147
-1.44141
-6.11255
2.94003
-1.26179
-4.74245
2.01462
-1.19472
-4.15248
2.20063
-0.335251
-1.17122
-2.4504
0.157525
-1.05828
-2.01811
-0.225558
-1.05878
-1.65615
-0.605552
-1.08423
-1.27275
-1.62089
-0.83138
-1.15336
-1.30372
-1.13149
-1.22552
-1.25003
-1.29232
-1.29584
-1.30126
-1.30357
)
;
    }
    bottom
    {
        type            calculated;
        value           nonuniform List<scalar> 
64
(
-20.134
-20.0373
-19.8451
-19.5596
-19.1843
-18.7244
-18.1866
-17.5793
-16.9125
-16.1973
-15.4456
-14.6694
-13.8808
-13.0906
-12.3091
-11.5449
-10.8052
-10.0957
-9.42041
-8.78226
-8.18271
-7.62223
-7.1004
-6.61614
-6.16785
-5.75362
-5.37131
-5.01871
-4.6936
-4.39383
-4.1174
-3.86245
-3.62732
-3.41053
-3.21077
-3.02689
-2.85788
-2.70281
-2.56084
-2.43119
-2.31312
-2.20591
-2.10885
-2.02126
-1.94246
-1.87178
-1.8086
-1.7523
-1.70229
-1.65802
-1.61898
-1.58469
-1.55471
-1.52863
-1.50608
-1.48674
-1.47029
-1.45649
-1.4451
-1.43591
-1.42877
-1.42353
-1.42009
-1.41839
)
;
    }
    defaultFaces
    {
        type            empty;
    }
}


// ************************************************************************* //
