/*--------------------------------*- C++ -*----------------------------------*\
| =========                 |                                                 |
| \\      /  F ield         | OpenFOAM: The Open Source CFD Toolbox           |
|  \\    /   O peration     | Version:  5.x                                   |
|   \\  /    A nd           | Web:      www.OpenFOAM.org                      |
|    \\/     M anipulation  |                                                 |
\*---------------------------------------------------------------------------*/
FoamFile
{
    version     2.0;
    format      ascii;
    class       volScalarField;
    location    "10.9";
    object      T;
}
// * * * * * * * * * * * * * * * * * * * * * * * * * * * * * * * * * * * * * //

dimensions      [0 0 0 1 0 0 0];

internalField   nonuniform List<scalar> 
2048
(
9.85535
9.85605
9.85743
9.85948
9.86217
9.86548
9.86934
9.87371
9.8785
9.88363
9.88903
9.89461
9.90028
9.90595
9.91157
9.91706
9.92237
9.92747
9.93232
9.93691
9.94121
9.94524
9.94899
9.95247
9.95569
9.95866
9.96141
9.96394
9.96628
9.96843
9.97042
9.97225
9.97394
9.9755
9.97693
9.97825
9.97947
9.98058
9.9816
9.98253
9.98338
9.98415
9.98485
9.98548
9.98604
9.98655
9.98701
9.98741
9.98777
9.98809
9.98837
9.98862
9.98883
9.98902
9.98918
9.98932
9.98944
9.98954
9.98962
9.98968
9.98974
9.98977
9.9898
9.98981
9.57181
9.57387
9.57796
9.58405
9.59205
9.60186
9.61333
9.62629
9.64051
9.65577
9.67181
9.68837
9.70518
9.72202
9.73867
9.75495
9.77069
9.78579
9.80014
9.81371
9.82644
9.83834
9.84942
9.8597
9.86921
9.87799
9.8861
9.89357
9.90047
9.90682
9.91268
9.91808
9.92307
9.92767
9.9319
9.9358
9.93939
9.94267
9.94568
9.94843
9.95094
9.95321
9.95527
9.95712
9.95879
9.96029
9.96163
9.96282
9.96388
9.96482
9.96564
9.96637
9.967
9.96756
9.96803
9.96844
9.96879
9.96908
9.96932
9.96952
9.96967
9.96978
9.96985
9.96989
9.29911
9.30249
9.30921
9.31922
9.33237
9.34851
9.36739
9.38872
9.41216
9.43729
9.4637
9.49094
9.5186
9.54628
9.57363
9.60033
9.62614
9.65086
9.67435
9.69652
9.71732
9.73675
9.75481
9.77156
9.78705
9.80136
9.81455
9.82672
9.83794
9.84827
9.85781
9.8666
9.87472
9.8822
9.8891
9.89544
9.90128
9.90663
9.91154
9.91601
9.92009
9.92378
9.92713
9.93015
9.93286
9.9353
9.93747
9.93941
9.94113
9.94265
9.94399
9.94517
9.94619
9.94709
9.94786
9.94852
9.94909
9.94956
9.94995
9.95026
9.95051
9.95069
9.9508
9.95086
9.03599
9.04066
9.04996
9.06378
9.08199
9.10433
9.13051
9.1601
9.19261
9.22748
9.26411
9.30187
9.34017
9.37846
9.41624
9.45308
9.48865
9.52268
9.55497
9.58541
9.61393
9.64053
9.66525
9.68815
9.70931
9.72885
9.74685
9.76345
9.77875
9.79285
9.80585
9.81785
9.82892
9.83913
9.84854
9.85721
9.86517
9.87248
9.87918
9.88528
9.89084
9.89589
9.90045
9.90457
9.90826
9.91158
9.91454
9.91717
9.91951
9.92157
9.92339
9.92499
9.92639
9.9276
9.92865
9.92955
9.93031
9.93095
9.93148
9.9319
9.93223
9.93247
9.93263
9.93271
8.78143
8.78736
8.79917
8.81675
8.83993
8.86842
8.90183
8.93963
8.98118
9.02574
9.07252
9.12072
9.16955
9.2183
9.26633
9.31309
9.35816
9.4012
9.44198
9.48036
9.51627
9.54972
9.58076
9.60948
9.63601
9.66047
9.68301
9.70377
9.7229
9.74054
9.7568
9.77181
9.78566
9.79844
9.81023
9.82108
9.83106
9.84022
9.8486
9.85625
9.86321
9.86952
9.87523
9.88037
9.88498
9.88912
9.89281
9.89609
9.899
9.90158
9.90384
9.90583
9.90756
9.90907
9.91037
9.91149
9.91243
9.91322
9.91388
9.9144
9.91481
9.91511
9.9153
9.9154
8.53458
8.54174
8.55601
8.57729
8.60539
8.63998
8.68061
8.72663
8.77725
8.83154
8.8885
8.94713
9.00645
9.06556
9.1237
9.1802
9.23455
9.28634
9.33533
9.38133
9.42431
9.46427
9.50131
9.53553
9.5671
9.59619
9.62298
9.64764
9.67036
9.69131
9.71063
9.72846
9.74492
9.76012
9.77413
9.78704
9.79892
9.80981
9.81978
9.82888
9.83715
9.84465
9.85143
9.85753
9.863
9.8679
9.87227
9.87615
9.87959
9.88263
9.88531
9.88765
9.8897
9.89147
9.893
9.89431
9.89543
9.89636
9.89712
9.89774
9.89821
9.89856
9.89879
9.89891
8.29474
8.30309
8.31978
8.3447
8.37766
8.41834
8.46621
8.52052
8.58029
8.64441
8.71165
8.78076
8.85058
8.92002
8.98817
9.05426
9.11769
9.178
9.23491
9.28824
9.33796
9.38411
9.42681
9.46621
9.50252
9.53594
9.5667
9.595
9.62106
9.64509
9.66726
9.68772
9.70663
9.72409
9.7402
9.75505
9.7687
9.78123
9.79269
9.80315
9.81265
9.82126
9.82903
9.83602
9.84229
9.84789
9.85288
9.85732
9.86125
9.86471
9.86776
9.87043
9.87276
9.87477
9.87651
9.878
9.87926
9.88031
9.88118
9.88188
9.88242
9.88281
9.88307
9.88319
8.06134
8.07086
8.08989
8.11838
8.15617
8.20292
8.25808
8.32077
8.38985
8.46396
8.54162
8.62134
8.70171
8.78147
8.85957
8.93512
9.00744
9.07604
9.14061
9.20097
9.25712
9.30913
9.35716
9.40143
9.44216
9.47962
9.51406
9.54574
9.57491
9.60179
9.6266
9.64953
9.67071
9.69029
9.70836
9.72502
9.74035
9.75441
9.76727
9.779
9.78965
9.79929
9.80799
9.8158
9.8228
9.82905
9.83461
9.83955
9.84392
9.84778
9.85116
9.85412
9.8567
9.85894
9.86087
9.86251
9.8639
9.86507
9.86602
9.86679
9.86738
9.86781
9.86809
9.86823
7.83394
7.84458
7.86588
7.89785
7.94039
7.99321
8.05572
8.12693
8.20552
8.28984
8.37812
8.46859
8.55961
8.64972
8.73772
8.82262
8.90367
8.98033
9.05229
9.11939
9.18164
9.23919
9.29223
9.34104
9.38589
9.4271
9.46495
9.49975
9.53178
9.5613
9.58857
9.61377
9.63708
9.65863
9.67854
9.6969
9.71379
9.72929
9.74346
9.75638
9.76811
9.77871
9.78826
9.79683
9.8045
9.81134
9.81742
9.82282
9.82759
9.83179
9.83548
9.8387
9.84151
9.84394
9.84603
9.84781
9.84932
9.85058
9.85161
9.85243
9.85307
9.85354
9.85384
9.85399
7.61218
7.62388
7.64735
7.68269
7.72989
7.78876
7.85868
7.93859
8.02692
8.12172
8.22088
8.32231
8.42409
8.52459
8.62245
8.71659
8.8062
8.89071
8.9698
9.04333
9.11137
9.17412
9.23185
9.28488
9.33356
9.37822
9.41922
9.45689
9.49154
9.5235
9.55303
9.58034
9.60563
9.62903
9.65066
9.67061
9.68896
9.70581
9.72121
9.73524
9.74796
9.75945
9.76979
9.77905
9.78733
9.79471
9.80126
9.80707
9.8122
9.81671
9.82067
9.82413
9.82713
9.82973
9.83197
9.83387
9.83548
9.83682
9.83791
9.83879
9.83946
9.83995
9.84027
9.84043
7.3958
7.40848
7.43399
7.47254
7.52429
7.58915
7.66657
7.75538
7.85374
7.95935
8.06968
8.18229
8.29498
8.40591
8.5136
8.61687
8.71488
8.80702
8.89297
8.97262
9.04613
9.11375
9.17585
9.2328
9.285
9.33285
9.37672
9.41701
9.45407
9.48825
9.51986
9.54913
9.57625
9.60137
9.62461
9.64605
9.66578
9.68389
9.70043
9.7155
9.72915
9.74146
9.75252
9.76242
9.77125
9.77911
9.78609
9.79226
9.79771
9.8025
9.8067
9.81036
9.81354
9.81628
9.81864
9.82065
9.82234
9.82375
9.8249
9.82581
9.82651
9.82703
9.82736
9.82752
7.18458
7.19817
7.22555
7.26713
7.32325
7.39402
7.479
7.57694
7.68569
7.80249
7.92433
8.04837
8.17211
8.29352
8.41099
8.5233
8.62954
8.72909
8.82162
8.9071
8.98573
9.0579
9.12403
9.1846
9.24004
9.2908
9.3373
9.37997
9.41921
9.45542
9.48893
9.52
9.54883
9.57557
9.60031
9.62314
9.64417
9.66345
9.68107
9.6971
9.71161
9.72468
9.7364
9.74687
9.7562
9.7645
9.77185
9.77835
9.78408
9.78911
9.79352
9.79735
9.80068
9.80355
9.80602
9.80811
9.80988
9.81134
9.81253
9.81348
9.8142
9.81473
9.81507
9.81524
6.97841
6.99278
7.02185
7.0662
7.12647
7.20304
7.29564
7.40296
7.5225
7.65092
7.78465
7.92039
8.05533
8.18726
8.31447
8.4357
8.54999
8.65673
8.75558
8.84655
8.92997
9.00635
9.07621
9.14009
9.19849
9.2519
9.30079
9.34561
9.38682
9.42486
9.4601
9.49284
9.52327
9.5515
9.57766
9.6018
9.62403
9.64442
9.66305
9.67998
9.69529
9.70906
9.72138
9.73236
9.74213
9.75081
9.7585
9.76528
9.77126
9.77651
9.78109
9.78508
9.78853
9.79151
9.79406
9.79623
9.79805
9.79956
9.80078
9.80175
9.80249
9.80303
9.80337
9.80354
6.77718
6.79221
6.82272
6.86955
6.93368
7.01587
7.11613
7.23313
7.36394
7.50448
7.65051
7.79824
7.94452
8.08698
8.22387
8.35388
8.47607
8.58977
8.69465
8.79078
8.87865
8.9589
9.03217
9.09907
9.16018
9.21599
9.26702
9.31377
9.35674
9.39642
9.43325
9.46753
9.49944
9.52909
9.55656
9.58194
9.6053
9.62672
9.64629
9.66407
9.68012
9.69453
9.70739
9.71883
9.72899
9.738
9.74598
9.75302
9.75921
9.76464
9.76937
9.77349
9.77705
9.78011
9.78274
9.78497
9.78683
9.78838
9.78962
9.7906
9.79135
9.79189
9.79224
9.79241
6.58088
6.59642
6.62809
6.67704
6.74465
6.83222
6.94014
7.06716
7.2098
7.36302
7.5218
7.6818
7.83954
7.99252
8.13901
8.27767
8.40756
8.52802
8.63865
8.73959
8.83154
8.91533
8.9917
9.06136
9.1249
9.18288
9.23583
9.2843
9.32883
9.36997
9.40823
9.44393
9.47723
9.50821
9.53693
9.56347
9.58789
9.61028
9.63073
9.6493
9.66604
9.68103
9.69437
9.70622
9.71672
9.72603
9.73426
9.74151
9.74789
9.75347
9.75833
9.76255
9.76619
9.76933
9.77202
9.77429
9.77619
9.77776
9.77902
9.78001
9.78076
9.78129
9.78164
9.78181
6.38948
6.40536
6.43789
6.48852
6.55917
6.65178
6.76734
6.90476
7.05989
7.22644
7.39842
7.57099
7.74027
7.90373
8.05972
8.20687
8.34429
8.4713
8.58738
8.69277
8.78842
8.87541
8.95459
9.02673
9.09249
9.15241
9.20707
9.25705
9.30293
9.34536
9.38491
9.42194
9.45655
9.48878
9.51868
9.5463
9.57171
9.59502
9.6163
9.6356
9.65299
9.66852
9.68229
9.69448
9.70527
9.71483
9.72327
9.73072
9.73725
9.74296
9.74793
9.75223
9.75594
9.75913
9.76186
9.76417
9.7661
9.76768
9.76894
9.76993
9.77068
9.77121
9.77155
9.77171
6.20302
6.21907
6.25209
6.30392
6.37706
6.47426
6.59737
6.74562
6.91408
7.09466
7.28032
7.46573
7.6466
7.82045
7.9858
8.14127
8.28603
8.41942
8.54067
8.6501
8.74906
8.83893
8.92063
8.995
9.06276
9.12442
9.18057
9.23188
9.27892
9.32244
9.36315
9.40143
9.43728
9.4707
9.50173
9.53036
9.5567
9.58087
9.60292
9.62292
9.64092
9.65693
9.67107
9.68355
9.6946
9.70436
9.71299
9.72059
9.72726
9.73307
9.73812
9.74248
9.74624
9.74947
9.75224
9.75458
9.75653
9.75811
9.75937
9.76035
9.76108
9.7616
9.76194
9.7621
6.02154
6.03756
6.07071
6.12318
6.19816
6.29939
6.42986
6.58945
6.77224
6.96764
7.16743
7.36598
7.55842
7.74248
7.91707
8.08065
8.23258
8.37221
8.49834
8.61137
8.71322
8.80566
8.8896
8.96596
9.03553
9.09874
9.1562
9.20865
9.25666
9.30109
9.34283
9.3823
9.41934
9.45389
9.48599
9.51558
9.54278
9.56776
9.59053
9.61119
9.62977
9.64622
9.66067
9.67339
9.68464
9.69458
9.70336
9.7111
9.71787
9.72377
9.72889
9.73329
9.73707
9.74033
9.74313
9.74549
9.74744
9.74903
9.75028
9.75124
9.75195
9.75246
9.75278
9.75294
5.84509
5.8609
5.89376
5.94627
6.02233
6.12688
6.26442
6.43591
6.63433
6.84537
7.0597
7.27169
7.47561
7.66964
7.85334
8.02479
8.18368
8.32951
8.46022
8.57636
8.68065
8.77538
8.8613
8.93942
9.01065
9.07521
9.1338
9.18724
9.23602
9.28115
9.3238
9.36444
9.40263
9.43826
9.47139
9.50187
9.52987
9.55561
9.57907
9.60034
9.61949
9.63635
9.65104
9.66393
9.67535
9.68543
9.69434
9.70219
9.70906
9.71502
9.72018
9.72461
9.7284
9.73167
9.73449
9.73687
9.73882
9.7404
9.74163
9.74257
9.74326
9.74375
9.74405
9.7442
5.67376
5.68914
5.7213
5.7732
5.84949
5.95645
6.10059
6.28463
6.50036
6.72792
6.95707
7.18287
7.39806
7.60168
7.79442
7.97345
8.13907
8.29118
8.42618
8.54484
8.65109
8.74789
8.83552
8.91517
8.98796
9.05371
9.11323
9.16753
9.21689
9.2625
9.30594
9.34777
9.38708
9.42372
9.45786
9.48917
9.5179
9.54438
9.56847
9.59033
9.61004
9.62726
9.64213
9.65514
9.6667
9.67689
9.68588
9.69384
9.70077
9.70678
9.71198
9.71642
9.7202
9.72347
9.72631
9.7287
9.73065
9.73221
9.73342
9.73433
9.73499
9.73545
9.73574
9.73588
5.50759
5.52236
5.5534
5.60401
5.67957
5.78785
5.93791
6.13517
6.37046
6.61535
6.85943
7.09953
7.32564
7.53835
7.74015
7.92639
8.09846
8.25712
8.3961
8.51658
8.62424
8.72298
8.81209
8.89303
8.96733
9.03409
9.09434
9.14944
9.19915
9.24499
9.28911
9.33221
9.37261
9.4102
9.44536
9.47742
9.50679
9.534
9.55867
9.58107
9.60138
9.61893
9.63389
9.64695
9.65862
9.66889
9.67796
9.68601
9.693
9.69903
9.70425
9.70868
9.71243
9.7157
9.71856
9.72095
9.72289
9.72443
9.72561
9.72649
9.72711
9.72754
9.72781
9.72794
5.34664
5.36062
5.39014
5.43877
5.51255
5.62085
5.77581
5.98699
6.24492
6.50783
6.76661
7.02178
7.25825
7.4793
7.69041
7.88334
8.06149
8.22726
8.3699
8.49132
8.59981
8.70049
8.7908
8.87276
8.94864
9.01622
9.077
9.13287
9.18274
9.22848
9.27315
9.3177
9.35916
9.39761
9.43383
9.46655
9.49647
9.52443
9.54961
9.57251
9.59348
9.61132
9.62627
9.63931
9.6511
9.66142
9.67052
9.67867
9.68569
9.69172
9.69698
9.70138
9.70508
9.70832
9.71121
9.7136
9.71552
9.71704
9.71818
9.71902
9.7196
9.72
9.72025
9.72037
5.19097
5.20398
5.2316
5.27757
5.34848
5.45526
5.61369
5.83938
6.12424
6.40552
6.67832
6.94979
7.19575
7.42408
7.64515
7.84404
8.02769
8.20163
8.34752
8.4688
8.57743
8.6803
8.77151
8.85416
8.93183
8.99999
9.06104
9.1178
9.16756
9.21283
9.2579
9.30422
9.34667
9.38586
9.42325
9.45651
9.48684
9.51563
9.54124
9.56457
9.58633
9.60441
9.61922
9.63217
9.64409
9.65442
9.66352
9.6718
9.67883
9.68484
9.69013
9.69448
9.6981
9.70131
9.70424
9.70664
9.70853
9.71002
9.71113
9.71191
9.71244
9.71281
9.71303
9.71314
5.04061
5.0525
5.07788
5.12054
5.18744
5.29093
5.45088
5.69138
6.00926
6.30867
6.59403
6.88389
7.13802
7.37211
7.60442
7.80823
7.99649
8.18037
8.32897
8.44872
8.5567
8.66235
8.75404
8.83694
8.91684
8.9853
9.04627
9.10419
9.15356
9.19789
9.24318
9.29178
9.33512
9.37482
9.41361
9.44725
9.47782
9.50758
9.5335
9.55715
9.57991
9.59818
9.6127
9.62546
9.63757
9.64787
9.65693
9.66538
9.67238
9.67834
9.68368
9.68797
9.69147
9.69463
9.69764
9.70004
9.70189
9.70336
9.70442
9.70515
9.70562
9.70595
9.70615
9.70625
4.89556
4.90622
4.92906
4.96781
5.02958
5.12782
5.28668
5.54167
5.90126
6.21754
6.51296
6.82466
7.08494
7.32261
7.56849
7.77562
7.96713
8.16377
8.31427
8.43077
8.53711
8.64665
8.73827
8.8208
8.90372
8.97204
9.03248
9.09208
9.14071
9.1835
9.22875
9.28044
9.32445
9.36437
9.40493
9.43872
9.46927
9.50029
9.52633
9.55016
9.57425
9.59261
9.60665
9.61911
9.63154
9.64175
9.65069
9.65938
9.66633
9.67219
9.67764
9.68184
9.68518
9.68827
9.6914
9.69379
9.69559
9.69703
9.69803
9.6987
9.69912
9.6994
9.69958
9.69966
4.75583
4.76515
4.78521
4.81953
4.87509
4.96597
5.12037
5.38839
5.80216
6.13241
6.43386
6.77298
7.03637
7.27448
7.53788
7.74596
7.93855
8.15236
8.30351
8.41459
8.51808
8.63337
8.72406
8.80533
8.89259
8.96013
9.01936
9.08155
9.12899
9.1695
9.21433
9.27034
9.31464
9.35431
9.39729
9.43087
9.46105
9.4938
9.5197
9.54345
9.5694
9.58771
9.60102
9.61304
9.62597
9.63601
9.64475
9.65382
9.66066
9.66635
9.67197
9.67605
9.67918
9.68218
9.6855
9.68787
9.68959
9.69102
9.69197
9.69256
9.69292
9.69316
9.69331
9.69338
4.62139
4.6293
4.64639
4.67586
4.72424
4.80559
4.95129
5.22893
5.71479
6.05356
6.35489
6.73026
6.99216
7.22622
7.5135
7.71895
7.90934
8.14698
8.29676
8.39979
8.49883
8.62285
8.71132
8.79
8.88368
8.94947
9.00656
9.0728
9.1184
9.15573
9.19955
9.26172
9.30567
9.3444
9.39082
9.42367
9.45297
9.48821
9.51354
9.53683
9.56543
9.58347
9.59575
9.60715
9.62091
9.63064
9.63904
9.6487
9.65533
9.66077
9.6667
9.6706
9.67346
9.67633
9.67994
9.68227
9.68389
9.68532
9.6862
9.68671
9.687
9.68719
9.68731
9.68737
4.49219
4.49865
4.51265
4.53693
4.57733
4.64702
4.77893
5.05961
5.64313
5.98117
6.27338
6.69859
6.95213
7.17577
7.4968
7.69435
7.87759
8.14895
8.29409
8.38596
8.47841
8.61566
8.69992
8.77413
8.87742
8.93998
8.99358
9.06609
9.10893
9.14204
9.18393
9.25495
9.29751
9.3343
9.38572
9.41707
9.44476
9.48365
9.50782
9.53008
9.56248
9.57988
9.59078
9.60133
9.6164
9.62561
9.63348
9.64405
9.65033
9.65539
9.66182
9.66547
9.66799
9.67067
9.67474
9.67697
9.67845
9.67991
9.68071
9.68114
9.68134
9.68149
9.68159
9.68164
4.36816
4.37316
4.384
4.4029
4.43467
4.49079
4.60312
4.8753
5.59275
5.91535
6.18561
6.68099
6.91606
7.12032
7.48996
7.67188
7.84071
8.16016
8.29547
8.37269
8.45557
8.6127
8.68976
8.7568
8.87445
8.93157
8.97976
9.06187
9.1006
9.1283
9.16684
9.25058
9.29013
9.32357
9.38234
9.41103
9.43608
9.48039
9.50249
9.52288
9.56078
9.57693
9.58605
9.59543
9.61252
9.6209
9.62796
9.63992
9.64564
9.65015
9.65736
9.66066
9.66275
9.66517
9.66989
9.67197
9.67324
9.67479
9.67549
9.67583
9.67594
9.67605
9.67612
9.67616
4.24923
4.25275
4.26042
4.27385
4.29661
4.33758
4.42418
4.66895
5.57127
5.85594
6.08645
6.68175
6.88366
7.05611
7.49612
7.65128
7.79526
8.18332
8.30072
8.35961
8.42871
8.61528
8.68072
8.73681
8.87569
8.92413
8.96426
9.06077
9.09338
9.11442
9.14745
9.24939
9.28349
9.31158
9.38113
9.4055
9.42648
9.47877
9.4975
9.5148
9.56062
9.57458
9.58152
9.58927
9.6094
9.61648
9.62236
9.6364
9.64123
9.64496
9.65335
9.65613
9.65771
9.65974
9.66544
9.66723
9.66825
9.66995
9.67052
9.67076
9.67078
9.67084
9.67089
9.67092
4.13527
4.13736
4.1419
4.14987
4.16345
4.18826
4.24329
4.43097
5.58892
5.80247
5.96908
6.70681
6.85449
6.97817
7.51961
7.63228
7.73671
8.22221
8.30936
8.34648
8.39576
8.62524
8.67266
8.71258
8.88248
8.91752
8.94595
9.06367
9.08719
9.10041
9.12464
9.25245
9.27752
9.29756
9.38277
9.40042
9.41536
9.47929
9.49283
9.50532
9.56243
9.57276
9.57713
9.58261
9.60722
9.61233
9.61649
9.63359
9.63709
9.6397
9.64987
9.65188
9.65286
9.65433
9.66143
9.66274
9.66344
9.66539
9.66579
9.66593
9.66583
9.66587
9.6659
9.66591
4.02618
4.02687
4.02837
4.031
4.03549
4.04376
4.06282
4.14855
5.65918
5.754
5.82456
6.76413
6.82795
6.88003
7.56631
7.61457
7.65918
8.28192
8.32044
8.33323
8.35407
8.64506
8.66537
8.68205
8.89659
8.91158
8.9234
9.07177
9.08185
9.0864
9.09697
9.26118
9.27208
9.28047
9.38816
9.39571
9.40196
9.48265
9.48841
9.49372
9.56681
9.57137
9.57287
9.57517
9.60624
9.60842
9.61014
9.63168
9.63318
9.63425
9.64701
9.64787
9.6482
9.64883
9.65791
9.65849
9.65876
9.66111
9.66128
9.66133
9.6611
9.66111
9.66112
9.66112
)
;

boundaryField
{
    left
    {
        type            zeroGradient;
    }
    right
    {
        type            zeroGradient;
    }
    interface
    {
        type            fixedValue;
        value           nonuniform List<scalar> 
64
(
3.97284
3.97284
3.97284
3.97284
3.97284
3.97284
3.97284
3.97284
5.73095
5.73095
5.73095
6.81529
6.81529
6.81529
7.60601
7.60601
7.60601
8.32654
8.32654
8.32654
8.32654
8.6619
8.6619
8.6619
8.90876
8.90876
8.90876
9.07939
9.07939
9.07939
9.07939
9.2695
9.2695
9.2695
9.39344
9.39344
9.39344
9.48627
9.48627
9.48627
9.57077
9.57077
9.57077
9.57077
9.60652
9.60652
9.60652
9.63128
9.63128
9.63128
9.64592
9.64592
9.64592
9.64592
9.65642
9.65642
9.65642
9.65908
9.65908
9.65908
9.65878
9.65878
9.65878
9.65878
)
;
    }
    bottom
    {
        type            fixedValue;
        value           uniform 10;
    }
    defaultFaces
    {
        type            empty;
    }
}


// ************************************************************************* //
