/*--------------------------------*- C++ -*----------------------------------*\
| =========                 |                                                 |
| \\      /  F ield         | OpenFOAM: The Open Source CFD Toolbox           |
|  \\    /   O peration     | Version:  5.x                                   |
|   \\  /    A nd           | Web:      www.OpenFOAM.org                      |
|    \\/     M anipulation  |                                                 |
\*---------------------------------------------------------------------------*/
FoamFile
{
    version     2.0;
    format      ascii;
    class       volScalarField;
    location    "6.9";
    object      gradTx;
}
// * * * * * * * * * * * * * * * * * * * * * * * * * * * * * * * * * * * * * //

dimensions      [0 -1 0 1 0 0 0];

internalField   nonuniform List<scalar> 
2048
(
0.022108
0.0660775
0.109284
0.151149
0.191018
0.228161
0.261821
0.291269
0.315884
0.335216
0.349038
0.357354
0.360395
0.35858
0.352468
0.342708
0.329993
0.315015
0.298437
0.280862
0.262817
0.244745
0.227
0.209849
0.193484
0.178031
0.163559
0.150094
0.137623
0.126106
0.115484
0.105685
0.0966344
0.0882585
0.0804904
0.0732722
0.0665566
0.0603056
0.0544903
0.0490888
0.0440844
0.0394639
0.0352157
0.0313283
0.0277889
0.0245829
0.0216933
0.0191009
0.0167847
0.0147223
0.0128902
0.0112647
0.009822
0.00853866
0.00739219
0.00636137
0.00542658
0.00457011
0.0037762
0.0030311
0.00232296
0.00164156
0.000978102
0.00032492
0.0655614
0.195974
0.32418
0.44849
0.566953
0.677387
0.777495
0.865066
0.938206
0.995548
1.0364
1.0608
1.06944
1.06361
1.04501
1.01558
0.977418
0.932593
0.883084
0.83069
0.77698
0.723263
0.670581
0.619719
0.571236
0.525495
0.482693
0.442896
0.406061
0.372063
0.34072
0.311814
0.285119
0.260413
0.237497
0.216197
0.196375
0.17792
0.160746
0.144792
0.130008
0.116358
0.103809
0.092327
0.0818759
0.0724121
0.0638855
0.0562391
0.0494102
0.0433323
0.0379359
0.0331502
0.0289045
0.0251292
0.0217575
0.0187263
0.0159775
0.0134585
0.0111229
0.00893003
0.00684495
0.00483777
0.00288284
0.000957732
0.107652
0.321857
0.532626
0.737249
0.932522
1.11478
1.2801
1.42469
1.54526
1.63947
1.70615
1.74539
1.75843
1.74748
1.71544
1.66564
1.60157
1.52671
1.44435
1.35747
1.26866
1.18007
1.09339
1.00986
0.930395
0.855541
0.785599
0.720654
0.660615
0.605257
0.554262
0.507259
0.463858
0.423688
0.386414
0.351755
0.319484
0.289421
0.261434
0.235424
0.211317
0.189058
0.168595
0.149879
0.132851
0.117441
0.103567
0.0911346
0.0800409
0.0701756
0.0614241
0.0536699
0.0467962
0.0406884
0.0352365
0.0303364
0.0258926
0.0218192
0.0180399
0.0144889
0.0111096
0.00785389
0.00468121
0.00155552
0.148663
0.444613
0.736206
1.01985
1.29111
1.54475
1.77507
1.97644
2.144
2.27428
2.3656
2.41816
2.43387
2.41602
2.36885
2.29714
2.20589
2.10003
1.98419
1.86254
1.7387
1.61559
1.49551
1.38015
1.27066
1.16776
1.0718
0.982874
0.9008
0.825236
0.755708
0.691666
0.632548
0.57782
0.527013
0.479736
0.435682
0.394613
0.356353
0.320778
0.287795
0.257336
0.229341
0.203747
0.180478
0.159439
0.140516
0.123578
0.108482
0.0950741
0.083195
0.0726827
0.063375
0.055113
0.0477435
0.0411224
0.0351174
0.0296099
0.0244958
0.0196852
0.0151014
0.0106797
0.0063675
0.00211651
0.188751
0.564756
0.935913
1.29792
1.64515
1.97068
2.26671
2.52544
2.74013
2.90597
3.02073
3.08481
3.101
3.07387
3.00919
2.91338
2.79303
2.65458
2.50409
2.34693
2.18771
2.03015
1.87707
1.73053
1.59187
1.46192
1.34106
1.22929
1.12637
1.03178
0.944875
0.864898
0.791087
0.722734
0.659231
0.600085
0.544913
0.493429
0.445426
0.400761
0.359333
0.321071
0.285913
0.253791
0.224613
0.198262
0.174593
0.153438
0.134612
0.117917
0.103149
0.0901013
0.0785668
0.0683415
0.0592293
0.051046
0.0436231
0.0368102
0.0304764
0.0245094
0.0188144
0.0133119
0.00794009
0.00264016
0.227954
0.682448
1.13218
1.57238
1.99627
2.39503
2.75841
3.07592
3.33845
3.53959
3.67651
3.75002
3.76402
3.72467
3.63955
3.51686
3.36495
3.19187
3.0051
2.81132
2.61613
2.42398
2.23817
2.06102
1.89401
1.73798
1.59327
1.45982
1.33725
1.22485
1.12177
1.02699
0.939538
0.858509
0.783152
0.712876
0.647237
0.585912
0.528676
0.475375
0.425913
0.380225
0.338257
0.299943
0.265183
0.233836
0.205727
0.180646
0.158366
0.138645
0.121234
0.105882
0.0923359
0.0803466
0.0696745
0.0600948
0.0514029
0.0434175
0.035982
0.0289637
0.0222514
0.0157532
0.00940072
0.00312704
0.266192
0.797513
1.3249
1.84345
2.34532
2.81955
3.25286
3.63141
3.94306
4.17946
4.33716
4.41761
4.42625
4.37122
4.2622
4.10942
3.92306
3.71289
3.48793
3.25616
3.02421
2.79723
2.57891
2.3717
2.17712
1.99597
1.8285
1.67453
1.53352
1.40457
1.28653
1.17813
1.0781
0.985349
0.898969
0.818284
0.742807
0.672192
0.606206
0.5447
0.487587
0.434826
0.386382
0.342199
0.302174
0.266144
0.233897
0.205182
0.179727
0.157244
0.13744
0.120017
0.104678
0.0911288
0.0790838
0.0682771
0.0584677
0.0494438
0.0410247
0.0330591
0.0254218
0.0180106
0.0107538
0.00357861
0.303274
0.909447
1.51347
2.11075
2.69248
3.24529
3.75218
4.19496
4.55763
4.8294
5.00628
5.09074
5.09031
5.01562
4.8788
4.6923
4.46828
4.21828
3.95293
3.68162
3.41205
3.14998
2.89936
2.66269
2.44137
2.23607
2.04691
1.87359
1.71538
1.57115
1.43943
1.3186
1.2071
1.10356
1.00697
0.916569
0.831849
0.752463
0.678182
0.60887
0.544463
0.484953
0.430342
0.380598
0.335616
0.29521
0.259127
0.22707
0.198716
0.173733
0.151783
0.132525
0.115615
0.10071
0.0874813
0.0756179
0.0648422
0.0549127
0.045626
0.0368142
0.0283403
0.0200948
0.0120056
0.00399698
0.338904
1.01744
1.69678
2.37323
3.03725
3.67273
4.25802
4.7693
5.18552
5.49289
5.68701
5.77199
5.75817
5.65931
5.4904
5.26628
5.00115
4.70835
4.40023
4.08772
3.77961
3.48223
3.19964
2.93417
2.68698
2.45853
2.24877
2.05727
1.88311
1.72491
1.58083
1.44882
1.32692
1.21354
1.10751
1.00805
0.914642
0.826969
0.744817
0.668067
0.596689
0.530723
0.470229
0.415213
0.365572
0.321093
0.281473
0.246362
0.215384
0.18816
0.164309
0.143446
0.125184
0.109131
0.094906
0.0821551
0.0705621
0.0598568
0.0498146
0.0402529
0.0310256
0.022019
0.013164
0.00438468
0.372685
1.12037
1.87325
2.62925
3.37848
4.10176
4.77166
5.35697
5.82997
6.17318
6.3821
6.4634
6.43121
6.30319
6.09758
5.83176
5.52192
5.18319
4.82976
4.47428
4.12676
3.79398
3.47987
3.18638
2.91428
2.6637
2.43443
2.2259
2.03705
1.86624
1.71117
1.56926
1.43807
1.31575
1.20101
1.09308
0.991499
0.895988
0.806355
0.722505
0.644444
0.57228
0.506158
0.446141
0.392133
0.343879
0.30102
0.263138
0.229804
0.200591
0.175077
0.152837
0.13344
0.116442
0.101408
0.0879363
0.0756714
0.0643152
0.053624
0.043403
0.0334993
0.0237981
0.0142376
0.00474447
0.404138
1.21688
2.04085
2.87658
3.71439
4.53178
5.29413
5.96048
6.49423
6.87338
7.094
7.16656
7.11026
6.9476
6.70047
6.38878
6.03059
5.6427
5.24126
4.84099
4.45329
4.08519
3.74021
3.41966
3.12368
2.85202
2.6043
2.37987
2.1776
1.99556
1.83096
1.68046
1.54109
1.41068
1.2879
1.17204
1.06276
0.959819
0.863068
0.772425
0.687932
0.609788
0.53826
0.473497
0.415405
0.363675
0.31787
0.277499
0.242069
0.211109
0.184161
0.160766
0.140446
0.122705
0.107047
0.0930164
0.0802195
0.0683313
0.0570912
0.0462948
0.0357846
0.0254479
0.015235
0.00507912
0.432711
1.30537
2.19715
3.1124
4.04251
4.96162
5.82621
6.58244
7.18173
7.59658
7.82483
7.88254
7.79559
7.59241
7.29884
6.93718
6.52707
6.08671
5.63436
5.18742
4.7589
4.35586
3.98092
3.63442
3.3157
3.02402
2.75888
2.51963
2.30515
2.11335
1.94073
1.78305
1.63658
1.49888
1.36866
1.24534
1.12875
1.01877
0.915238
0.818084
0.727375
0.643421
0.566673
0.497401
0.435508
0.380602
0.332147
0.289561
0.252285
0.21981
0.191647
0.167306
0.146271
0.127987
0.111887
0.0974552
0.0842595
0.0719512
0.0602553
0.0489601
0.0379054
0.0269842
0.0161649
0.00539119
0.457805
1.38407
2.33935
3.3333
4.35969
5.38952
6.36853
7.22574
7.8962
8.34586
8.57644
8.61195
8.4869
8.23696
7.89209
7.47658
7.0112
6.515
6.00861
5.51301
5.04327
4.60599
4.2023
3.83121
3.49097
3.18029
2.89868
2.64562
2.42013
2.22005
2.0411
1.87769
1.72517
1.58093
1.44375
1.31335
1.18983
1.07315
0.963158
0.859758
0.763007
0.673357
0.591532
0.517979
0.452572
0.394795
0.343985
0.299452
0.26057
0.226796
0.197621
0.172536
0.15099
0.132362
0.115998
0.101316
0.0878465
0.0752218
0.0631555
0.0514312
0.0398861
0.0284224
0.0170347
0.00568283
0.478802
1.45113
2.4644
3.53537
4.66202
5.81307
6.92157
7.89372
8.64187
9.12433
9.35034
9.35488
9.18329
8.88018
8.47938
8.00649
7.48287
6.92744
6.36345
5.81704
5.30604
4.83569
4.40479
4.01068
3.65021
3.32151
3.02431
2.7583
2.52289
2.31612
2.13269
1.96511
1.80757
1.65739
1.51364
1.37644
1.24631
1.12327
1.00712
0.897731
0.795075
0.699772
0.612968
0.535355
0.466733
0.406397
0.353529
0.307313
0.267048
0.232175
0.202177
0.176535
0.154676
0.135903
0.119452
0.104662
0.0910359
0.07819
0.0658306
0.0537403
0.0417509
0.0297769
0.0178507
0.00595551
0.495092
1.50465
2.56907
3.7142
4.94482
6.22912
7.48568
8.59043
9.42363
9.93508
10.1477
10.1109
9.88323
9.52054
9.05963
8.52634
7.94214
7.32407
6.69821
6.09863
5.54679
5.04515
4.58892
4.1736
3.79427
3.44842
3.13638
2.85814
2.61376
2.40196
2.21617
2.04611
1.88446
1.72885
1.57879
1.43496
1.29848
1.16941
1.04742
0.932306
0.823842
0.722837
0.631091
0.549647
0.478134
0.41556
0.360937
0.313291
0.271847
0.236057
0.205406
0.179378
0.1574
0.138687
0.122323
0.107558
0.0938822
0.0809009
0.0683178
0.0559189
0.0435238
0.0310605
0.0186169
0.00620974
0.506117
1.54284
2.65007
3.86501
5.20256
6.63353
8.06102
9.32088
10.2473
10.7811
10.9691
10.8789
10.5845
10.1561
9.63163
9.03551
8.38934
7.70519
7.01213
6.35662
5.76515
5.23472
4.75531
4.32088
3.92412
3.56178
3.23556
2.94562
2.69295
2.47789
2.29229
2.12159
1.95656
1.79587
1.63963
1.48918
1.34662
1.21187
1.08433
0.9638
0.849589
0.742707
0.645986
0.560967
0.486923
0.422443
0.36637
0.317542
0.275098
0.238553
0.207399
0.181139
0.159232
0.140791
0.124688
0.110068
0.0964377
0.0833974
0.0706512
0.057998
0.0452287
0.032284
0.0193344
0.00644476
0.511399
1.5641
2.70424
3.9827
5.42882
7.02102
8.64744
10.0915
11.1198
11.6648
11.8148
11.6576
11.2841
10.7847
10.1941
9.53323
8.8252
8.07158
7.30421
6.58947
5.96077
5.40496
4.90471
4.45359
4.04085
3.66237
3.32256
3.02122
2.76054
2.54415
2.36186
2.19254
2.02458
1.85901
1.69655
1.53933
1.39098
1.25091
1.11812
0.992552
0.872628
0.759513
0.657702
0.56942
0.49326
0.427208
0.369999
0.320225
0.276931
0.239773
0.208246
0.18188
0.160233
0.142295
0.126628
0.112251
0.0987516
0.0857193
0.072861
0.0600082
0.0468905
0.0334556
0.0200008
0.00665815
0.510582
1.56713
2.72868
4.06211
5.61629
7.3848
9.24426
10.9106
12.0498
12.588
12.6842
12.4449
11.9779
11.4038
10.7459
10.0185
9.25101
8.42467
7.5731
6.79514
6.13342
5.55678
5.03786
4.5729
4.14571
3.75093
3.39815
3.08547
2.81643
2.60076
2.42584
2.26013
2.08917
1.91877
1.74995
1.58555
1.43175
1.28681
1.14901
1.01893
0.893316
0.773351
0.666231
0.575107
0.497322
0.430017
0.371999
0.321509
0.27747
0.239826
0.208034
0.181653
0.160455
0.143283
0.128225
0.114164
0.10087
0.0879036
0.0749718
0.0619796
0.0485359
0.0345806
0.0206088
0.00684545
0.503459
1.55101
2.72097
4.09814
5.75679
7.71624
9.84989
11.7893
13.0478
13.5508
13.5762
13.2391
12.6608
12.011
11.286
10.4899
9.66883
8.76689
7.81692
6.97079
6.28314
5.69153
5.15544
4.68018
4.24011
3.82802
3.46319
3.13903
2.86024
2.64753
2.48535
2.32571
2.15082
1.97564
1.80022
1.62782
1.46915
1.31986
1.17714
1.04336
0.912079
0.784263
0.671497
0.578135
0.499312
0.431023
0.37255
0.321571
0.276827
0.238817
0.206851
0.180497
0.159938
0.143843
0.129569
0.115851
0.102834
0.0899842
0.0769999
0.0639433
0.0501953
0.03566
0.0211451
0.00699979
0.489999
1.51534
2.67932
4.08607
5.84139
8.0044
10.4611
12.7421
14.127
14.5504
14.4892
14.0383
13.3257
12.6041
11.8144
10.9447
10.0818
9.10208
8.03292
7.11255
6.41043
5.8112
5.25781
4.77694
4.32577
3.89393
3.51867
3.18274
2.8912
2.6839
2.54185
2.39095
2.20984
2.03006
1.84781
1.66598
1.50337
1.35038
1.20258
1.06631
0.929452
0.792211
0.673326
0.578628
0.499473
0.430363
0.371837
0.320599
0.275099
0.236853
0.20479
0.178433
0.158703
0.144075
0.130761
0.117347
0.104681
0.0919942
0.0789499
0.0659324
0.051906
0.0366892
0.0215891
0.00711155
0.47035
1.46024
2.60279
4.02183
5.86064
8.23555
11.0722
13.7888
15.3044
15.5796
15.4212
14.8422
13.9628
13.1816
12.3317
11.3786
10.4943
9.43614
8.21697
7.21512
6.51659
5.91871
5.34475
4.86498
4.40477
3.9484
3.56577
3.21784
2.90807
2.70882
2.59722
2.45791
2.26608
2.08249
1.89325
1.69957
1.53463
1.37878
1.22516
1.08834
0.946125
0.797038
0.671418
0.57675
0.49811
0.428132
0.370053
0.318801
0.27235
0.234038
0.201956
0.175455
0.156749
0.144096
0.131913
0.118661
0.10645
0.0939683
0.0808094
0.0679841
0.0537155
0.0376559
0.0219118
0.00716825
0.444848
1.38641
2.49135
3.90237
5.80491
8.39276
11.6732
14.9557
16.6019
16.6237
16.3705
15.6525
14.5585
13.7433
12.8407
11.784
10.9128
9.77787
8.36293
7.27127
6.6042
6.01822
5.41487
4.94647
4.47978
3.9903
3.60602
3.24612
2.90893
2.72054
2.654
2.5292
2.31872
2.1334
1.93732
1.72772
1.56328
1.40564
1.24443
1.11017
0.963021
0.798412
0.665316
0.57274
0.495609
0.424353
0.367404
0.316417
0.268594
0.230484
0.198474
0.171527
0.154043
0.144049
0.133161
0.119772
0.108175
0.0959477
0.0825403
0.0701428
0.0556873
0.0385368
0.0220741
0.0071547
0.413998
1.29512
2.34608
3.72602
5.66494
8.45554
12.2476
16.2786
18.048
17.6569
17.3371
16.475
15.0929
14.2915
13.3469
12.1483
11.3464
10.14
8.46163
7.27128
6.67772
6.11557
5.46485
5.02418
4.55439
4.01708
3.64143
3.27031
2.89093
2.71633
2.71567
2.60822
2.36589
2.18345
1.98118
1.74894
1.58982
1.43178
1.25946
1.13266
0.981388
0.795743
0.654358
0.566953
0.492475
0.418931
0.364116
0.313737
0.263774
0.226314
0.194502
0.166574
0.150506
0.144116
0.134668
0.120606
0.109904
0.0979879
0.0840666
0.0724649
0.0579074
0.039292
0.0220264
0.00705357
0.378453
1.18817
2.1691
3.49276
5.43261
8.39979
12.7692
17.8051
19.6806
18.6368
18.3242
17.3215
15.5367
14.8323
13.8603
12.4508
11.8078
10.541
8.49958
7.20228
6.7444
6.21891
5.48837
5.10186
4.63355
4.02398
3.67477
3.29439
2.85005
2.69221
2.787
2.69937
2.40407
2.23361
2.02659
1.76078
1.61507
1.45843
1.26857
1.15701
1.00293
0.788074
0.637638
0.559925
0.48937
0.411581
0.360459
0.311126
0.257719
0.221672
0.190254
0.160465
0.146003
0.144531
0.136641
0.121012
0.111695
0.100169
0.0852572
0.0750248
0.0604933
0.0398578
0.0217087
0.00684653
0.338976
1.06777
1.9636
3.20458
5.1018
8.19824
13.1976
19.5989
21.5506
19.4964
19.341
18.2138
15.8469
15.3777
14.3975
12.6589
12.315
11.0063
8.45719
7.04756
6.81532
6.33941
5.47449
5.18479
4.72419
4.00307
3.70995
3.32418
2.78067
2.64243
2.87449
2.80851
2.42739
2.28544
2.07623
1.7594
1.64038
1.48742
1.26901
1.18479
1.02995
0.773932
0.613962
0.552448
0.487167
0.401732
0.356772
0.30906
0.250092
0.216743
0.186018
0.153001
0.140323
0.145606
0.139344
0.120732
0.11364
0.102611
0.0859003
0.0779255
0.0636053
0.0401354
0.0210516
0.00651598
0.296403
0.936464
1.73371
2.86557
4.66949
7.82152
13.4717
21.7446
23.726
20.1349
20.4073
19.1869
15.9601
15.9488
14.9845
12.7232
12.8932
11.5711
8.3065
6.78576
6.90669
6.49225
5.4056
5.28062
4.83605
3.94168
3.75254
3.36793
2.67514
2.55903
2.98698
2.94334
2.42657
2.34152
2.13411
1.73896
1.66787
1.52148
1.25646
1.21818
1.06558
0.751123
0.581801
0.545664
0.48701
0.388401
0.353513
0.308172
0.240323
0.211775
0.182188
0.143896
0.133153
0.147749
0.143122
0.119348
0.115881
0.105494
0.0856704
0.0813114
0.0674596
0.0399765
0.0199799
0.00604739
0.2516
0.796989
1.48426
2.48199
4.13689
7.24043
13.5019
24.3526
26.299
20.4039
21.559
20.2948
15.784
16.579
15.6606
12.5696
13.5782
12.283
8.00822
6.39027
7.04141
6.69784
5.25469
5.40052
4.98279
3.82063
3.81056
3.43701
2.52325
2.43117
3.13624
3.11411
2.38761
2.40595
2.20606
1.69076
1.70081
1.56455
1.22441
1.26022
1.11397
0.716479
0.539272
0.541167
0.490392
0.37002
0.35132
0.309312
0.227505
0.207117
0.179295
0.132753
0.124056
0.151496
0.148426
0.116229
0.118635
0.109084
0.0840832
0.0853877
0.0723444
0.0391628
0.0184184
0.00543208
0.205421
0.652132
1.22061
2.06206
3.51045
6.42944
13.1597
27.5665
29.3934
20.0911
22.8559
21.6168
15.1866
17.3203
16.4827
12.0914
14.4194
13.2047
7.50817
5.82863
7.25065
6.98335
4.98192
5.56074
5.1833
3.61174
3.89543
3.54675
2.31156
2.24446
3.33777
3.33435
2.29014
2.48522
2.30036
1.6022
1.74414
1.62221
1.16336
1.31513
1.18055
0.665542
0.484122
0.541126
0.499254
0.344222
0.351107
0.313621
0.210282
0.203263
0.178042
0.119038
0.112435
0.157547
0.155852
0.110448
0.122237
0.113765
0.0804389
0.0904455
0.0786375
0.0373802
0.0163012
0.00467008
0.158673
0.5046
0.948286
1.61564
2.80268
5.37215
12.2649
31.57
33.1753
18.8998
24.3922
23.2648
13.9822
18.2488
17.5317
11.1373
15.4857
14.4174
6.73301
5.06224
7.57564
7.38457
4.53032
5.78464
5.46333
3.27481
4.02334
3.71723
2.02277
1.98012
3.61157
3.62192
2.10531
2.5891
2.42849
1.45541
1.80508
1.70226
1.05985
1.38882
1.27234
0.592171
0.413755
0.548397
0.516095
0.307581
0.354184
0.322609
0.186691
0.200924
0.179341
0.102047
0.0974979
0.166794
0.166184
0.10069
0.127181
0.120079
0.0737505
0.0968951
0.0868266
0.0341858
0.0135856
0.00377262
0.112087
0.356908
0.672739
1.15361
2.03239
4.06882
10.5701
36.5949
37.8655
16.4242
26.3087
25.392
11.9144
19.4737
18.9185
9.4986
16.8716
16.0244
5.58519
4.04648
8.06925
7.9483
3.8207
6.10528
5.85734
2.75406
4.21695
3.97411
1.63494
1.61416
3.98299
4.00014
1.79332
2.732
2.60595
1.22561
1.89394
1.81529
0.895187
1.48939
1.39823
0.488086
0.3253
0.566636
0.544113
0.255296
0.362412
0.338259
0.15398
0.201108
0.184349
0.0808824
0.0782211
0.180363
0.180451
0.085139
0.134182
0.128768
0.0626575
0.105309
0.0975296
0.0289684
0.0102703
0.00276356
0.0662993
0.211286
0.399029
0.687203
1.22422
2.54646
7.74246
42.9305
43.7546
12.1202
28.8092
28.2027
8.63655
21.1466
20.7928
6.89342
18.7051
18.1541
3.93731
2.73133
8.79746
8.73508
2.7457
6.56846
6.41066
1.97379
4.50755
4.34937
1.12074
1.11648
4.48356
4.49932
1.30052
2.93448
2.85319
0.879209
2.0251
1.9754
0.644113
1.62794
1.56925
0.342352
0.215729
0.600391
0.587369
0.180819
0.378395
0.363123
0.108392
0.205235
0.194498
0.054411
0.0533076
0.199647
0.199989
0.061341
0.144243
0.140828
0.0453247
0.116472
0.111516
0.0209009
0.00642033
0.00167882
0.0218374
0.0696223
0.131608
0.227125
0.407002
0.871691
3.34289
50.9318
51.2212
5.27254
32.1782
31.9624
3.68865
23.4736
23.3508
2.94863
21.1573
20.9632
1.62596
1.06257
9.84028
9.82253
1.16299
7.23642
7.18168
0.833573
4.93762
4.8818
0.44675
0.449968
5.1517
5.1584
0.55606
3.22507
3.19662
0.371587
2.21811
2.20096
0.273143
1.81936
1.79884
0.140791
0.0820451
0.655152
0.650981
0.0754458
0.405712
0.400437
0.0449222
0.215262
0.211516
0.0212401
0.0211468
0.22634
0.226529
0.0260542
0.158744
0.157565
0.0193255
0.131448
0.129727
0.00888645
0.00219764
0.000563049
)
;

boundaryField
{
    left
    {
        type            calculated;
        value           uniform 0;
    }
    right
    {
        type            calculated;
        value           uniform 0;
    }
    interface
    {
        type            calculated;
        value           nonuniform List<scalar> 
64
(
0.0218374
0.0696223
0.131608
0.227125
0.407002
0.871691
3.34289
50.9318
51.2212
5.27254
32.1782
31.9624
3.68865
23.4736
23.3508
2.94863
21.1573
20.9632
1.62596
1.06257
9.84028
9.82253
1.16299
7.23642
7.18168
0.833573
4.93762
4.8818
0.44675
0.449968
5.1517
5.1584
0.55606
3.22507
3.19662
0.371587
2.21811
2.20096
0.273143
1.81936
1.79884
0.140791
0.0820451
0.655152
0.650981
0.0754458
0.405712
0.400437
0.0449222
0.215262
0.211516
0.0212401
0.0211468
0.22634
0.226529
0.0260542
0.158744
0.157565
0.0193255
0.131448
0.129727
0.00888645
0.00219764
0.000563049
)
;
    }
    bottom
    {
        type            calculated;
        value           nonuniform List<scalar> 
64
(
0.022108
0.0660775
0.109284
0.151149
0.191018
0.228161
0.261821
0.291269
0.315884
0.335216
0.349038
0.357354
0.360395
0.35858
0.352468
0.342708
0.329993
0.315015
0.298437
0.280862
0.262817
0.244745
0.227
0.209849
0.193484
0.178031
0.163559
0.150094
0.137623
0.126106
0.115484
0.105685
0.0966344
0.0882585
0.0804904
0.0732722
0.0665566
0.0603056
0.0544903
0.0490888
0.0440844
0.0394639
0.0352157
0.0313283
0.0277889
0.0245829
0.0216933
0.0191009
0.0167847
0.0147223
0.0128902
0.0112647
0.009822
0.00853866
0.00739219
0.00636137
0.00542658
0.00457011
0.0037762
0.0030311
0.00232296
0.00164156
0.000978102
0.00032492
)
;
    }
    defaultFaces
    {
        type            empty;
    }
}


// ************************************************************************* //
