/*--------------------------------*- C++ -*----------------------------------*\
| =========                 |                                                 |
| \\      /  F ield         | OpenFOAM: The Open Source CFD Toolbox           |
|  \\    /   O peration     | Version:  5.x                                   |
|   \\  /    A nd           | Web:      www.OpenFOAM.org                      |
|    \\/     M anipulation  |                                                 |
\*---------------------------------------------------------------------------*/
FoamFile
{
    version     2.0;
    format      ascii;
    class       volScalarField;
    location    "6.9";
    object      T;
}
// * * * * * * * * * * * * * * * * * * * * * * * * * * * * * * * * * * * * * //

dimensions      [0 0 0 1 0 0 0];

internalField   nonuniform List<scalar> 
2048
(
9.85507
9.85576
9.85714
9.85918
9.86186
9.86515
9.86899
9.87333
9.87809
9.8832
9.88857
9.89411
9.89974
9.90537
9.91094
9.91639
9.92165
9.9267
9.9315
9.93602
9.94027
9.94424
9.94792
9.95133
9.95448
9.95738
9.96004
9.96249
9.96473
9.96679
9.96867
9.9704
9.97198
9.97342
9.97473
9.97593
9.97702
9.97801
9.97891
9.97972
9.98044
9.98109
9.98168
9.98219
9.98266
9.98306
9.98342
9.98374
9.98402
9.98427
9.98448
9.98467
9.98483
9.98498
9.9851
9.98521
9.9853
9.98538
9.98544
9.98549
9.98554
9.98557
9.98559
9.9856
9.57099
9.57304
9.57711
9.58317
9.59113
9.60088
9.61229
9.62518
9.63933
9.6545
9.67044
9.68689
9.70359
9.72031
9.73683
9.75296
9.76856
9.78351
9.79771
9.8111
9.82367
9.83538
9.84627
9.85634
9.86563
9.87419
9.88206
9.88928
9.8959
9.90197
9.90752
9.91261
9.91727
9.92152
9.92541
9.92894
9.93216
9.93508
9.93772
9.9401
9.94225
9.94417
9.94588
9.94741
9.94877
9.94997
9.95103
9.95197
9.95279
9.95351
9.95414
9.9547
9.95518
9.9556
9.95596
9.95628
9.95655
9.95678
9.95697
9.95713
9.95725
9.95734
9.9574
9.95743
9.29778
9.30114
9.30783
9.31778
9.33087
9.34693
9.36571
9.38693
9.41023
9.43522
9.46146
9.48854
9.51601
9.54349
9.57062
9.59709
9.62267
9.64714
9.67038
9.69228
9.7128
9.73192
9.74968
9.76609
9.78123
9.79517
9.80797
9.81972
9.83049
9.84036
9.8494
9.85768
9.86526
9.87218
9.8785
9.88425
9.88949
9.89424
9.89853
9.90241
9.90589
9.90901
9.9118
9.91428
9.91648
9.91843
9.92015
9.92167
9.923
9.92417
9.92519
9.92609
9.92687
9.92755
9.92814
9.92865
9.92909
9.92946
9.92977
9.93002
9.93022
9.93037
9.93047
9.93052
9.03419
9.03883
9.04808
9.06184
9.07995
9.10218
9.12822
9.15766
9.18999
9.22466
9.26106
9.29858
9.33663
9.37464
9.41213
9.44867
9.48391
9.5176
9.54954
9.57961
9.60774
9.63394
9.65823
9.68067
9.70136
9.72038
9.73785
9.75388
9.76857
9.78203
9.79436
9.80564
9.81597
9.82541
9.83403
9.84188
9.84902
9.85549
9.86135
9.86663
9.87137
9.87562
9.87942
9.88279
9.88578
9.88843
9.89077
9.89282
9.89463
9.89621
9.8976
9.89881
9.89987
9.90079
9.90159
9.90228
9.90288
9.90338
9.9038
9.90415
9.90442
9.90462
9.90475
9.90482
8.77919
8.78508
8.79683
8.81433
8.83739
8.86574
8.89898
8.93658
8.9779
9.02221
9.06871
9.1166
9.16511
9.21351
9.26117
9.30755
9.35221
9.39483
9.43517
9.47308
9.50851
9.54145
9.57195
9.60011
9.62603
9.64985
9.67172
9.69176
9.71013
9.72696
9.74237
9.75649
9.7694
9.78121
9.79199
9.80181
9.81074
9.81884
9.82616
9.83276
9.83868
9.84399
9.84872
9.85292
9.85665
9.85994
9.86284
9.8654
9.86764
9.8696
9.87132
9.87283
9.87414
9.87528
9.87627
9.87713
9.87787
9.8785
9.87902
9.87945
9.87979
9.88004
9.8802
9.88028
8.53193
8.53905
8.55325
8.57443
8.60239
8.63681
8.67723
8.72301
8.77336
8.82734
8.88397
8.94223
9.00116
9.05986
9.11755
9.17359
9.22746
9.27875
9.3272
9.37266
9.41505
9.45441
9.4908
9.52435
9.55521
9.58354
9.60952
9.63333
9.65514
9.67512
9.69342
9.71018
9.72551
9.73954
9.75234
9.76401
9.77462
9.78424
9.79293
9.80076
9.80778
9.81407
9.81967
9.82464
9.82904
9.83292
9.83635
9.83935
9.84199
9.8443
9.84632
9.84809
9.84963
9.85098
9.85214
9.85315
9.85402
9.85476
9.85538
9.85588
9.85628
9.85658
9.85678
9.85687
8.29171
8.30003
8.31664
8.34144
8.37424
8.41473
8.46235
8.51638
8.57584
8.6396
8.70644
8.77514
8.84449
8.91346
8.9811
9.04665
9.10951
9.16925
9.22554
9.27824
9.3273
9.37275
9.41471
9.45334
9.48883
9.52138
9.5512
9.57852
9.60353
9.62644
9.64742
9.66664
9.68424
9.70033
9.71503
9.72843
9.7406
9.75164
9.76161
9.77058
9.77863
9.78582
9.79222
9.79789
9.80291
9.80734
9.81123
9.81465
9.81764
9.82026
9.82256
9.82456
9.82631
9.82783
9.82915
9.8303
9.83129
9.83213
9.83283
9.83341
9.83387
9.8342
9.83443
9.83454
8.05798
8.06746
8.0864
8.11476
8.15236
8.1989
8.25378
8.31615
8.38487
8.45858
8.53579
8.61502
8.69488
8.7741
8.85162
8.92656
8.99825
9.06619
9.13007
9.18972
9.24512
9.29635
9.34356
9.38695
9.42677
9.46325
9.49664
9.52721
9.55519
9.58082
9.60429
9.6258
9.6455
9.66352
9.67998
9.69499
9.70863
9.72098
9.73214
9.74218
9.75117
9.75919
9.76632
9.77264
9.77822
9.78313
9.78744
9.79123
9.79454
9.79744
9.79997
9.80218
9.80411
9.80579
9.80726
9.80853
9.80962
9.81055
9.81134
9.81198
9.81249
9.81286
9.81311
9.81324
7.83028
7.84087
7.86208
7.8939
7.93624
7.98881
8.05101
8.12188
8.20006
8.28392
8.37171
8.46164
8.55208
8.64159
8.72894
8.81316
8.89351
8.96945
9.04064
9.10695
9.16839
9.22507
9.2772
9.32506
9.3689
9.40902
9.44573
9.4793
9.51002
9.53814
9.56392
9.58755
9.6092
9.62901
9.64712
9.66362
9.67862
9.6922
9.70446
9.71548
9.72534
9.73413
9.74192
9.74882
9.7549
9.76025
9.76493
9.76904
9.77263
9.77577
9.77851
9.78091
9.783
9.78482
9.78641
9.78778
9.78897
9.78999
9.79084
9.79155
9.7921
9.79252
9.79279
9.79293
7.60826
7.61991
7.64327
7.67845
7.72544
7.78402
7.85362
7.93314
8.02102
8.11532
8.21393
8.31476
8.41591
8.51574
8.61289
8.70629
8.79513
8.87885
8.95711
9.02978
9.09693
9.15874
9.21549
9.26749
9.31506
9.35856
9.3983
9.43463
9.46786
9.49829
9.52618
9.55177
9.57522
9.59671
9.61634
9.63424
9.6505
9.66522
9.6785
9.69042
9.70108
9.71056
9.71896
9.72638
9.7329
9.73863
9.74365
9.74804
9.75187
9.75522
9.75814
9.76069
9.76292
9.76486
9.76655
9.76803
9.7693
9.77039
9.77131
9.77207
9.77267
9.77312
9.77341
9.77356
7.39164
7.40427
7.42967
7.46804
7.51956
7.58412
7.66118
7.74956
7.84744
7.95251
8.06224
8.17419
8.28619
8.39639
8.5033
8.60578
8.70295
8.79423
8.87929
8.95802
9.03057
9.09719
9.15823
9.21407
9.26509
9.31169
9.35422
9.39307
9.42859
9.46112
9.49095
9.51834
9.54347
9.5665
9.58755
9.60674
9.62418
9.63995
9.65417
9.66693
9.67831
9.68842
9.69737
9.70524
9.71216
9.71823
9.72353
9.72816
9.7322
9.73572
9.7388
9.74148
9.74382
9.74587
9.74766
9.74921
9.75056
9.75172
9.7527
9.7535
9.75414
9.75462
9.75494
9.7551
7.18022
7.19374
7.22101
7.2624
7.31828
7.38873
7.47333
7.5708
7.67903
7.79523
7.91642
8.03976
8.16275
8.28337
8.40001
8.51146
8.6168
8.71543
8.80701
8.8915
8.96912
9.04022
9.10524
9.16462
9.21881
9.26824
9.31331
9.35445
9.39205
9.42649
9.45809
9.48714
9.51381
9.53828
9.56065
9.58105
9.59957
9.61632
9.63141
9.64492
9.65697
9.66765
9.67708
9.68536
9.69262
9.69897
9.70452
9.70935
9.71357
9.71724
9.72043
9.72323
9.72566
9.7278
9.72966
9.73129
9.73271
9.73393
9.73496
9.73581
9.73649
9.73699
9.73733
9.7375
6.97387
6.98817
7.01712
7.06128
7.12129
7.19752
7.28971
7.39654
7.51551
7.64329
7.77632
7.91131
8.04544
8.17652
8.30285
8.42315
8.53649
8.64225
8.74009
8.83002
8.91237
8.98762
9.0563
9.11894
9.17603
9.22803
9.27541
9.31862
9.35809
9.39425
9.42747
9.45803
9.48614
9.51194
9.53555
9.55706
9.57659
9.59424
9.61013
9.62434
9.63699
9.64819
9.65804
9.66667
9.67422
9.68081
9.68656
9.69156
9.69592
9.69971
9.703
9.70588
9.7084
9.7106
9.71253
9.71423
9.7157
9.71697
9.71805
9.71894
9.71966
9.72019
9.72055
9.72072
6.77249
6.78746
6.81784
6.86447
6.92832
7.01016
7.10998
7.22646
7.35666
7.49651
7.64179
7.78871
7.93413
8.07569
8.21164
8.34067
8.46184
8.57451
8.67832
8.77337
8.86011
8.93918
9.01122
9.07683
9.13656
9.1909
9.24035
9.28541
9.32655
9.36425
9.39893
9.4309
9.46034
9.48738
9.51213
9.53468
9.55515
9.57363
9.59025
9.6051
9.6183
9.62995
9.64017
9.6491
9.6569
9.66369
9.6696
9.67474
9.6792
9.68308
9.68646
9.6894
9.69198
9.69424
9.69622
9.69797
9.69949
9.70081
9.70194
9.70287
9.70362
9.70417
9.70455
9.70473
6.57606
6.59153
6.62308
6.67181
6.73915
6.82634
6.93381
7.06026
7.20226
7.35475
7.51273
7.67187
7.82869
7.98072
8.12621
8.26383
8.39266
8.51202
8.62153
8.72134
8.81212
8.89468
8.96978
9.03808
9.1002
9.15666
9.20797
9.25467
9.29728
9.33635
9.37234
9.4056
9.43628
9.46449
9.49031
9.51383
9.53515
9.55441
9.5717
9.58714
9.60083
9.61288
9.62342
9.6326
9.6406
9.64755
9.65358
9.65883
9.66337
9.66732
9.67075
9.67374
9.67636
9.67866
9.68069
9.68248
9.68405
9.68541
9.68658
9.68755
9.68833
9.68891
9.6893
9.68949
6.38455
6.40037
6.43277
6.48318
6.55355
6.64576
6.76085
6.89767
7.05212
7.2179
7.38903
7.56068
7.729
7.89145
8.04638
8.19244
8.32874
8.4546
8.56952
8.67373
8.76817
8.85389
8.93175
9.0025
9.06678
9.12513
9.17809
9.22624
9.27014
9.31039
9.34757
9.38202
9.41387
9.44317
9.46999
9.49441
9.51653
9.53649
9.5544
9.57037
9.58452
9.59692
9.60773
9.61711
9.62526
9.63233
9.63846
9.64378
9.64838
9.65237
9.65584
9.65885
9.6615
9.66383
9.6659
9.66773
9.66934
9.67074
9.67194
9.67295
9.67375
9.67436
9.67476
9.67497
6.198
6.21398
6.24688
6.29849
6.37134
6.46814
6.59075
6.73837
6.90611
7.08587
7.27063
7.45508
7.63493
7.80771
7.97195
8.12627
8.26987
8.40206
8.5221
8.63032
8.72802
8.81659
8.89693
8.96986
9.0361
9.09614
9.15055
9.19997
9.24497
9.28624
9.32447
9.36005
9.39299
9.42331
9.45108
9.47633
9.49919
9.5198
9.53828
9.55474
9.56929
9.58201
9.59303
9.60256
9.61082
9.61798
9.62417
9.62954
9.63418
9.63819
9.64167
9.6447
9.64736
9.64971
9.6518
9.65367
9.65531
9.65675
9.65799
9.65903
9.65987
9.66049
9.66091
9.66112
6.01645
6.03241
6.06542
6.11768
6.19237
6.29319
6.42314
6.58207
6.7641
6.95863
7.15747
7.35501
7.54638
7.72932
7.90275
8.06513
8.21583
8.35422
8.4791
8.59088
8.69144
8.78255
8.86509
8.93998
9.008
9.06954
9.12521
9.17573
9.22163
9.26374
9.30291
9.33955
9.37354
9.40484
9.4335
9.45952
9.48305
9.50426
9.52326
9.54017
9.5551
9.56809
9.57927
9.58891
9.59724
9.60445
9.61068
9.61607
9.62073
9.62474
9.62822
9.63124
9.6339
9.63626
9.63838
9.64027
9.64194
9.64342
9.64469
9.64576
9.64663
9.64728
9.64771
9.64792
5.83996
5.85569
5.88842
5.94072
6.01649
6.12062
6.25762
6.42843
6.62604
6.83617
7.0495
7.26043
7.46322
7.65608
7.83857
8.00877
8.16637
8.31092
8.44034
8.5552
8.65818
8.75154
8.83604
8.91265
8.98229
9.04516
9.10192
9.15338
9.20001
9.24276
9.28275
9.32043
9.35543
9.38764
9.41716
9.4439
9.46803
9.48981
9.50928
9.5266
9.54188
9.5551
9.56639
9.57608
9.58446
9.59169
9.59793
9.60333
9.60798
9.61198
9.61544
9.61844
9.62108
9.62344
9.62558
9.62749
9.6292
9.6307
9.63201
9.63311
9.63401
9.63468
9.63512
9.63534
5.66858
5.68389
5.71593
5.76762
5.84362
5.95016
6.09376
6.27707
6.49195
6.71854
6.94665
7.17133
7.38535
7.58776
7.77922
7.95695
8.12125
8.27201
8.40569
8.52304
8.62795
8.72336
8.80955
8.88767
8.95883
9.02285
9.08052
9.13281
9.17998
9.22316
9.26385
9.30259
9.33857
9.37165
9.40201
9.42939
9.45407
9.47637
9.49627
9.51396
9.52959
9.543
9.55435
9.56404
9.57243
9.57965
9.58588
9.59127
9.5959
9.59987
9.6033
9.60627
9.60887
9.61123
9.61338
9.61531
9.61704
9.61858
9.61992
9.62105
9.62198
9.62267
9.62313
9.62335
5.50238
5.51707
5.54801
5.59841
5.67369
5.78156
5.93105
6.12756
6.36195
6.60583
6.84881
7.08774
7.31263
7.52408
7.72456
7.90944
8.08014
8.23739
8.37502
8.49417
8.60049
8.69781
8.78545
8.86484
8.93748
9.00249
9.06087
9.11392
9.16143
9.20479
9.24608
9.28596
9.32289
9.35677
9.38796
9.41593
9.44107
9.46389
9.48416
9.50218
9.51817
9.53174
9.54308
9.55273
9.5611
9.56829
9.57448
9.57986
9.58445
9.58837
9.59176
9.59468
9.59724
9.59958
9.60174
9.6037
9.60545
9.60703
9.60839
9.60955
9.61051
9.61123
9.61169
9.61191
5.34141
5.35531
5.38474
5.43317
5.50669
5.61457
5.76896
5.97936
6.23633
6.49817
6.75582
7.00975
7.24496
7.4647
7.67444
7.86597
8.04269
8.207
8.34825
8.46834
8.57547
8.67472
8.76354
8.84393
8.91812
8.98393
9.04282
9.09661
9.14426
9.18752
9.22927
9.27046
9.30831
9.34292
9.37498
9.40346
9.42897
9.45231
9.4729
9.4912
9.50759
9.52129
9.53254
9.54208
9.55044
9.55757
9.5637
9.56905
9.57359
9.57745
9.58079
9.58365
9.58615
9.58846
9.59065
9.59262
9.5944
9.596
9.59739
9.59858
9.59959
9.60032
9.60079
9.60101
5.18573
5.19866
5.2262
5.27198
5.34264
5.44901
5.60687
5.83175
6.11558
6.39575
6.66736
6.93753
7.1822
7.40918
7.62881
7.82627
8.00844
8.18085
8.32532
8.44527
8.55255
8.65395
8.74366
8.82473
8.90066
8.96705
9.0262
9.08085
9.1284
9.17119
9.21328
9.25606
9.29479
9.32999
9.36302
9.3919
9.41767
9.44158
9.46242
9.48094
9.49781
9.51161
9.52268
9.53206
9.5404
9.54745
9.55349
9.55883
9.56329
9.56707
9.57037
9.57315
9.57557
9.57785
9.58008
9.58206
9.58384
9.58549
9.58691
9.58812
9.58917
9.58993
9.5904
9.59062
5.03536
5.04718
5.07249
5.11497
5.18163
5.28474
5.44413
5.68377
6.00054
6.29879
6.58293
6.87142
7.12423
7.35695
7.58774
7.79008
7.97683
8.15907
8.30623
8.42469
8.5313
8.63545
8.72565
8.80696
8.88508
8.95176
9.01083
9.06659
9.11378
9.15566
9.19791
9.24275
9.28226
9.31788
9.35206
9.38121
9.40709
9.43168
9.45266
9.47132
9.48882
9.50267
9.51345
9.52259
9.53095
9.53789
9.54381
9.54915
9.55353
9.5572
9.56046
9.56315
9.56547
9.56771
9.56999
9.57198
9.57377
9.57547
9.5769
9.57814
9.57925
9.58003
9.58049
9.58071
4.89031
4.9009
4.92368
4.96226
5.02382
5.1217
5.28001
5.53412
5.89248
6.20758
6.50174
6.81198
7.07092
7.3072
7.55148
7.75712
7.94707
8.14196
8.29102
8.40625
8.51125
8.61923
8.70936
8.79031
8.87138
8.93794
8.99648
9.05387
9.10036
9.14077
9.18294
9.2306
9.2707
9.30645
9.34212
9.37134
9.3971
9.4226
9.44358
9.46225
9.48061
9.49444
9.50479
9.51363
9.52206
9.52885
9.53461
9.54
9.54427
9.54781
9.55104
9.55363
9.55583
9.55801
9.56038
9.56237
9.56415
9.56592
9.56736
9.5686
9.56979
9.57059
9.57104
9.57125
4.75058
4.75984
4.77984
4.81402
4.86939
4.95994
5.11382
5.38093
5.79333
6.12237
6.42255
6.7601
7.02214
7.25885
7.52054
7.72712
7.91814
8.13003
8.27973
8.38961
8.49179
8.60544
8.69467
8.77437
8.85969
8.9255
8.98287
9.04276
9.08812
9.12636
9.16809
9.2197
9.26007
9.29553
9.33324
9.36223
9.38758
9.41435
9.43513
9.45361
9.4732
9.48691
9.49667
9.50509
9.51372
9.52031
9.52586
9.53136
9.53549
9.53887
9.54211
9.54456
9.5466
9.54872
9.55122
9.55319
9.55495
9.55682
9.55825
9.55949
9.56079
9.5616
9.56204
9.56223
4.61614
4.62401
4.64105
4.67039
4.71861
4.79967
4.94487
5.2216
5.70589
6.04344
6.34351
6.71716
6.97773
7.21041
7.49582
7.6998
7.88862
8.12412
8.27247
8.37438
8.47216
8.59442
8.68147
8.75863
8.85024
8.91434
8.96963
9.03342
9.07704
9.11228
9.15301
9.21028
9.25033
9.2849
9.32552
9.35384
9.37835
9.40699
9.42724
9.44525
9.46663
9.48006
9.48902
9.49691
9.50593
9.51224
9.51749
9.52322
9.52716
9.53032
9.53363
9.53593
9.53778
9.5398
9.54251
9.54444
9.54614
9.54815
9.54955
9.55078
9.55222
9.55304
9.55344
9.55361
4.48695
4.49337
4.50733
4.53151
4.57177
4.64121
4.77269
5.05245
5.63414
5.971
6.26199
6.68525
6.93751
7.15983
7.47877
7.67491
7.85663
8.12552
8.26927
8.36015
8.45142
8.58673
8.66965
8.74242
8.84342
8.90439
8.95629
9.02613
9.06712
9.09836
9.13726
9.20267
9.24146
9.27423
9.31912
9.34612
9.36919
9.40062
9.41989
9.43698
9.46099
9.47387
9.48178
9.489
9.49869
9.5046
9.50945
9.51557
9.51925
9.52215
9.5256
9.52771
9.52932
9.53122
9.53425
9.53609
9.5377
9.53991
9.54125
9.54243
9.54408
9.54488
9.54525
9.54539
4.36293
4.36789
4.3787
4.39752
4.42919
4.48511
4.59707
4.86838
5.58363
5.90511
6.17425
6.66737
6.90127
7.10431
7.47155
7.65217
7.81959
8.1361
8.27013
8.34651
8.42832
8.58325
8.65909
8.72482
8.83986
8.89555
8.9422
9.02128
9.05836
9.08449
9.12024
9.19735
9.23343
9.26314
9.31434
9.33903
9.35982
9.39544
9.41301
9.42856
9.45641
9.46832
9.47492
9.48125
9.49206
9.49738
9.50167
9.50845
9.51175
9.51428
9.51803
9.51989
9.52122
9.52293
9.52643
9.52813
9.52958
9.5321
9.53333
9.53441
9.53636
9.53712
9.53743
9.53754
4.244
4.2475
4.25515
4.26852
4.2912
4.33204
4.41835
4.66235
5.56194
5.84565
6.0752
6.6678
6.8687
7.04012
7.47725
7.63132
7.77408
8.15856
8.27484
8.3331
8.4013
8.58526
8.64968
8.70466
8.84047
8.8877
8.92654
9.01948
9.05073
9.07057
9.10117
9.19504
9.22617
9.25108
9.31155
9.33252
9.34985
9.39171
9.40658
9.41968
9.45312
9.46337
9.46837
9.47354
9.48608
9.49054
9.49406
9.50187
9.50463
9.50668
9.51091
9.51244
9.51344
9.51489
9.51908
9.52053
9.52174
9.52472
9.52576
9.52668
9.52905
9.52972
9.52996
9.53005
4.13005
4.13212
4.13665
4.14459
4.15813
4.18285
4.23771
4.4248
5.57928
5.79213
5.95804
6.69242
6.83938
6.96231
7.50021
7.61209
7.71563
8.19662
8.28294
8.31966
8.3683
8.59458
8.64127
8.68039
8.84653
8.88072
8.90821
9.02158
9.04413
9.0566
9.07902
9.19671
9.21962
9.23735
9.31133
9.32652
9.3388
9.3898
9.40053
9.40993
9.45141
9.45897
9.4621
9.46571
9.48087
9.48407
9.48652
9.49589
9.49786
9.49928
9.50428
9.50536
9.50598
9.50702
9.51222
9.51327
9.51413
9.51778
9.51854
9.5192
9.52218
9.52268
9.52283
9.52288
4.02097
4.02165
4.02315
4.02576
4.03024
4.03848
4.05748
4.14295
5.6491
5.74361
5.81387
6.74918
6.81269
6.86445
7.54624
7.59416
7.63839
8.25533
8.29349
8.30614
8.32669
8.61365
8.63365
8.64999
8.85979
8.87442
8.88584
9.02872
9.03839
9.04268
9.05245
9.20367
9.21365
9.22105
9.31444
9.32094
9.32605
9.39026
9.39483
9.39879
9.45168
9.45501
9.45608
9.45757
9.47656
9.47791
9.47892
9.49059
9.49143
9.492
9.49816
9.49861
9.49882
9.49927
9.50589
9.50635
9.50671
9.51131
9.51163
9.51191
9.51574
9.51597
9.51602
9.51603
)
;

boundaryField
{
    left
    {
        type            zeroGradient;
    }
    right
    {
        type            zeroGradient;
    }
    interface
    {
        type            fixedValue;
        value           nonuniform List<scalar> 
64
(
3.96763
3.96763
3.96763
3.96763
3.96763
3.96763
3.96763
3.96763
5.72053
5.72053
5.72053
6.79996
6.79996
6.79996
7.5855
7.5855
7.5855
8.29932
8.29932
8.29932
8.29932
8.63002
8.63002
8.63002
8.87142
8.87142
8.87142
9.03573
9.03573
9.03573
9.03573
9.2108
9.2108
9.2108
9.31825
9.31825
9.31825
9.39206
9.39206
9.39206
9.45313
9.45313
9.45313
9.45313
9.47492
9.47492
9.47492
9.48829
9.48829
9.48829
9.49531
9.49531
9.49531
9.49531
9.50296
9.50296
9.50296
9.50826
9.50826
9.50826
9.51269
9.51269
9.51269
9.51269
)
;
    }
    bottom
    {
        type            fixedValue;
        value           uniform 10;
    }
    defaultFaces
    {
        type            empty;
    }
}


// ************************************************************************* //
