/*--------------------------------*- C++ -*----------------------------------*\
| =========                 |                                                 |
| \\      /  F ield         | OpenFOAM: The Open Source CFD Toolbox           |
|  \\    /   O peration     | Version:  5.x                                   |
|   \\  /    A nd           | Web:      www.OpenFOAM.org                      |
|    \\/     M anipulation  |                                                 |
\*---------------------------------------------------------------------------*/
FoamFile
{
    version     2.0;
    format      ascii;
    class       volScalarField;
    location    "3.7";
    object      gradTx;
}
// * * * * * * * * * * * * * * * * * * * * * * * * * * * * * * * * * * * * * //

dimensions      [0 -1 0 1 0 0 0];

internalField   nonuniform List<scalar> 
2048
(
0.0211524
0.0632126
0.104514
0.144485
0.182482
0.21779
0.249668
0.277412
0.300421
0.318269
0.330744
0.337868
0.339882
0.337211
0.330416
0.320143
0.307076
0.2919
0.275263
0.257756
0.239892
0.2221
0.204721
0.188016
0.172166
0.157292
0.143457
0.130683
0.118956
0.108233
0.0984534
0.0895454
0.0814306
0.0740314
0.0672745
0.0610939
0.0554318
0.0502391
0.0454747
0.0411044
0.0371
0.0334374
0.0300956
0.0270554
0.0242978
0.0218039
0.0195544
0.0175291
0.0157078
0.0140699
0.0125946
0.0112617
0.0100513
0.00894398
0.00792165
0.00696741
0.0060661
0.00520448
0.00437146
0.00355812
0.0027577
0.00196535
0.0011777
0.000392347
0.0627347
0.1875
0.310071
0.428772
0.541691
0.646682
0.741508
0.824022
0.892398
0.945334
0.982196
1.00306
1.00866
1.0003
0.979678
0.948741
0.909548
0.864147
0.814476
0.762294
0.709128
0.656247
0.604658
0.55512
0.508166
0.464139
0.423223
0.385472
0.350836
0.319186
0.290336
0.264066
0.240141
0.218327
0.198407
0.180183
0.163484
0.148167
0.134111
0.121214
0.109396
0.0985854
0.0887222
0.0797499
0.0716133
0.0642569
0.0576231
0.0516527
0.0462855
0.0414602
0.0371158
0.0331919
0.0296293
0.0263709
0.0233625
0.020554
0.0179004
0.0153623
0.0129069
0.010508
0.00814577
0.00580628
0.0034801
0.00115969
0.103034
0.308012
0.509565
0.705007
0.891189
1.06451
1.22116
1.35743
1.47017
1.55714
1.61727
1.65071
1.65876
1.64368
1.60836
1.5561
1.49038
1.41461
1.33202
1.24552
1.15764
1.07044
0.985563
0.904222
0.827264
0.755222
0.688368
0.62677
0.570324
0.518802
0.471882
0.429186
0.390318
0.354886
0.322525
0.292913
0.265771
0.240863
0.217996
0.197009
0.17777
0.160171
0.144114
0.12951
0.116272
0.104309
0.0935268
0.0838295
0.0751174
0.0672903
0.0602478
0.0538909
0.0481221
0.0428475
0.0379777
0.03343
0.0291301
0.0250135
0.0210265
0.0171263
0.0132811
0.00946931
0.00567787
0.00189303
0.14233
0.425624
0.704562
0.975572
1.2343
1.47561
1.69393
1.88379
2.04051
2.16077
2.24304
2.2876
2.29646
2.27293
2.22127
2.14623
2.05277
1.94572
1.82964
1.70859
1.58607
1.46493
1.34738
1.23504
1.12902
1.03
0.938295
0.853961
0.776818
0.706515
0.642574
0.584447
0.531559
0.483354
0.439321
0.399012
0.362045
0.3281
0.296917
0.268283
0.242025
0.218
0.196081
0.176153
0.158098
0.141794
0.127113
0.11392
0.102079
0.09145
0.081896
0.0732795
0.065466
0.058325
0.0517322
0.0455725
0.0397426
0.0341534
0.0287309
0.0234172
0.0181695
0.0129594
0.00777419
0.00259367
0.180781
0.540848
0.896044
1.24208
1.57343
1.88328
2.16403
2.40811
2.60898
2.76206
2.8653
2.91924
2.92676
2.89248
2.82218
2.72223
2.59918
2.45935
2.30866
2.15236
1.99491
1.83991
1.69009
1.54741
1.41317
1.28814
1.17264
1.06668
0.969969
0.882006
0.802136
0.729614
0.663672
0.603575
0.548663
0.498366
0.452203
0.409782
0.370782
0.334944
0.302064
0.271972
0.244522
0.219576
0.196992
0.176618
0.158292
0.141843
0.127097
0.113876
0.102007
0.0913145
0.0816282
0.0727807
0.0646127
0.0569764
0.0497394
0.0427881
0.0360293
0.0293911
0.0228213
0.016285
0.00977425
0.00326331
0.218425
0.653852
1.08445
1.50545
1.91017
2.28996
2.6348
2.9345
3.18024
3.3659
3.48887
3.55013
3.55369
3.50578
3.41397
3.28643
3.13141
2.95682
2.77
2.5774
2.38448
2.19551
2.0137
1.84126
1.67959
1.52949
1.39125
1.26477
1.14963
1.04515
0.950483
0.86464
0.786638
0.715551
0.650565
0.590992
0.536264
0.485922
0.439594
0.396987
0.357871
0.322061
0.289401
0.259739
0.232911
0.208739
0.187026
0.167564
0.150141
0.134543
0.12056
0.107982
0.0966006
0.0862132
0.0766242
0.0676518
0.0591345
0.0509339
0.0429385
0.0350638
0.0272501
0.0194569
0.0116849
0.00390425
0.255189
0.764472
1.26969
1.76591
2.24539
2.69736
3.10887
3.46643
3.75831
3.9765
4.11784
4.18397
4.18046
4.11551
3.9988
3.84052
3.65073
3.43903
3.21423
2.98406
2.75493
2.5318
2.31823
2.11657
1.92826
1.75404
1.59409
1.4482
1.3158
1.196
1.08769
0.989628
0.90058
0.819414
0.745159
0.677015
0.614339
0.556617
0.503436
0.454478
0.409495
0.368301
0.330738
0.296651
0.26586
0.238159
0.213317
0.191086
0.171215
0.153456
0.137562
0.123289
0.110395
0.0986384
0.087786
0.0776211
0.0679516
0.058615
0.0494815
0.0404559
0.031473
0.0224878
0.0135141
0.00451915
0.290887
0.872224
1.45118
2.02309
2.57925
3.10653
3.5883
4.00688
4.34675
4.59758
4.75569
4.8238
4.80955
4.72364
4.5782
4.38563
4.15797
3.90652
3.64166
3.37246
3.10632
2.84879
2.60369
2.37341
2.15927
1.96188
1.78128
1.61712
1.46863
1.33471
1.21395
1.1048
1.00574
0.915406
0.832671
0.756642
0.686615
0.622033
0.562454
0.507539
0.457037
0.410769
0.368594
0.33036
0.295879
0.264916
0.237199
0.212441
0.190351
0.170643
0.153039
0.137264
0.123039
0.110085
0.0981291
0.0869161
0.0762226
0.0658615
0.055686
0.0455913
0.0355092
0.0253917
0.0152702
0.00511083
0.325233
0.976318
1.62786
2.27599
2.9113
3.51793
4.07474
4.55853
4.94886
5.23253
5.40548
5.4721
5.44284
5.33152
5.15312
4.92246
4.65357
4.35953
4.05235
3.74254
3.43855
3.14645
2.87015
2.6119
2.3728
2.15322
1.95304
1.77173
1.60835
1.46155
1.32957
1.2105
1.10246
1.00385
0.913403
0.830144
0.753332
0.682385
0.616837
0.556336
0.500635
0.449578
0.403056
0.36094
0.323034
0.289071
0.258733
0.231687
0.207599
0.186151
0.167034
0.149945
0.134571
0.120593
0.107693
0.0955762
0.0839851
0.0727085
0.0615832
0.0504967
0.0393799
0.0281835
0.016962
0.0056821
0.357843
1.07568
1.79818
2.52303
3.24044
3.93152
4.56945
5.12385
5.56781
5.88451
6.06988
6.13085
6.08165
5.93997
5.72408
5.4513
5.13769
4.79807
4.44616
4.09411
3.75146
3.42472
3.11768
2.83224
2.56911
2.32836
2.10967
1.91235
1.73528
1.57685
1.43493
1.30712
1.19115
1.08514
0.987709
0.897835
0.814771
0.737923
0.66681
0.601067
0.540456
0.484862
0.434236
0.388487
0.347413
0.310708
0.278
0.248899
0.22303
0.200041
0.179601
0.16138
0.145037
0.130208
0.116525
0.103646
0.0912809
0.0791937
0.0672064
0.0552001
0.0431067
0.0308782
0.0185978
0.00623551
0.38825
1.16898
1.96018
2.76205
3.56492
4.34668
5.07344
5.70533
6.20676
6.55656
6.75126
6.80157
6.72674
6.54929
6.29112
5.97215
5.61029
5.222
4.82284
4.42685
4.04484
3.68356
3.34642
3.03471
2.74858
2.48772
2.25157
2.03934
1.84978
1.68103
1.53049
1.39516
1.27228
1.15972
1.05598
0.960059
0.871235
0.788921
0.712621
0.641953
0.576687
0.516772
0.462255
0.413106
0.369116
0.329925
0.295093
0.264167
0.236724
0.212385
0.1908
0.171624
0.154488
0.138981
0.124675
0.111175
0.0981546
0.085357
0.0725902
0.0597306
0.0467121
0.0334905
0.0201851
0.00677316
0.415917
1.25466
2.11149
2.99028
3.88237
4.76229
5.5875
6.3055
6.86908
7.2517
7.4517
7.4853
7.37836
7.15928
6.85396
6.48475
6.07119
5.6311
5.18201
4.74035
4.31841
3.92295
3.55658
3.2197
2.91169
2.63176
2.3792
2.15313
1.95226
1.77451
1.61673
1.47515
1.34639
1.22807
1.11864
1.01717
0.923038
0.835665
0.754533
0.679231
0.609531
0.545469
0.48724
0.434909
0.388253
0.346833
0.310123
0.277594
0.248774
0.223262
0.200699
0.180734
0.162978
0.146968
0.132198
0.118214
0.104652
0.0912385
0.0777691
0.0641171
0.050218
0.0360341
0.0217304
0.00729648
0.440261
1.331
2.24939
3.20442
4.18971
5.17667
6.11223
6.92721
7.5584
7.97294
8.17299
8.18262
8.03619
7.7693
7.41198
6.98868
6.52017
6.02512
5.52319
5.03406
4.57185
4.1429
3.74845
3.38769
3.05901
2.76106
2.49307
2.25417
2.04313
1.85775
1.69421
1.54769
1.41405
1.29068
1.17611
1.06953
0.970494
0.878445
0.792819
0.713155
0.639203
0.571114
0.509315
0.454009
0.404938
0.361549
0.323207
0.289291
0.259277
0.232754
0.209364
0.188764
0.170559
0.154224
0.139153
0.124815
0.11082
0.0968777
0.0827771
0.0683887
0.0536464
0.0385215
0.0232378
0.00780598
0.460677
1.39618
2.3709
3.40067
4.48315
5.58747
6.64814
7.57372
8.27887
8.72331
8.9166
8.89361
8.69934
8.37823
7.96428
7.48339
6.95704
6.40388
5.84587
5.30733
4.80483
4.3435
3.92243
3.53929
3.19121
2.87626
2.59375
2.34293
2.12278
1.93118
1.76351
1.61343
1.47585
1.34809
1.22881
1.11748
1.01391
0.917548
0.827752
0.743988
0.665926
0.593865
0.528593
0.470516
0.419292
0.374198
0.334472
0.299377
0.268337
0.240949
0.216865
0.195769
0.177283
0.160808
0.145598
0.131033
0.116702
0.102312
0.0876462
0.0725739
0.0570187
0.0409633
0.0247095
0.00830103
0.476572
1.44836
2.47286
3.57471
4.75811
5.99161
7.19556
8.24898
9.03527
9.50584
9.68365
9.61782
9.36632
8.98457
8.50977
7.96825
7.38178
6.76735
6.14943
5.55936
5.017
4.52495
4.07902
3.67521
3.30908
2.97805
2.68186
2.41991
2.19157
1.99524
1.82524
1.67307
1.53243
1.40081
1.27716
1.16135
1.05357
0.953253
0.859605
0.772007
0.689936
0.613873
0.545174
0.484534
0.431437
0.384911
0.344049
0.307977
0.276061
0.247933
0.223267
0.201796
0.183195
0.166779
0.151598
0.13692
0.122343
0.107578
0.092406
0.0767008
0.0603569
0.0433682
0.0261441
0.00877956
0.487397
1.48579
2.55207
3.72187
5.0092
6.38507
7.75466
8.9579
9.83326
10.3234
10.4748
10.3543
10.035
9.58643
9.04721
8.44256
7.79458
7.11578
6.43316
5.78912
5.20803
4.68757
4.21882
3.7963
3.41352
3.06717
2.75804
2.48558
2.2498
2.05028
1.88008
1.72739
1.58441
1.44934
1.32156
1.2014
1.08973
0.985828
0.888643
0.7975
0.711481
0.631269
0.55913
0.496161
0.441502
0.393821
0.35208
0.315222
0.282553
0.253797
0.228637
0.206884
0.188336
0.172199
0.157219
0.142527
0.127781
0.112706
0.0970824
0.0807979
0.0636842
0.0457421
0.0275363
0.00923778
0.492685
1.50689
2.60543
3.8372
5.23017
6.7627
8.32529
9.70674
10.6797
11.1785
11.2902
11.1016
10.7023
10.1816
9.57533
8.90552
8.19601
7.44983
6.69617
5.99524
5.37761
4.83192
4.34253
3.90353
3.50553
3.14437
2.82297
2.54046
2.29767
2.09658
1.92874
1.77725
1.63242
1.49419
1.36238
1.23787
1.12265
1.01553
0.915112
0.820776
0.730836
0.646165
0.570496
0.505488
0.449622
0.401059
0.358706
0.321248
0.287919
0.258629
0.233038
0.211058
0.192732
0.177134
0.162536
0.147901
0.133052
0.117724
0.101696
0.0848942
0.0670264
0.048088
0.0288757
0.00966976
0.492084
1.51039
2.6301
3.91562
5.41388
7.11789
8.90679
10.5036
11.5828
12.0728
12.1292
11.8579
11.3645
10.7677
10.0929
9.35612
8.58717
7.77078
6.93727
6.17589
5.52557
4.95885
4.45088
3.99797
3.58624
3.21035
2.87738
2.58511
2.3352
2.1343
1.97206
1.82362
1.67704
1.53582
1.39998
1.27092
1.15254
1.04263
0.939227
0.842172
0.748307
0.658635
0.579263
0.512602
0.455948
0.406757
0.364079
0.326196
0.292255
0.26252
0.236536
0.214329
0.1964
0.181658
0.167629
0.153085
0.138189
0.122656
0.106259
0.0890206
0.0704145
0.0504048
0.0301449
0.010067
0.485388
1.49539
2.62371
3.95217
5.55235
7.44222
9.49761
11.3593
12.5531
13.0064
12.9909
12.6213
12.0165
11.3423
10.5991
9.79284
8.96982
8.0808
7.1548
6.32858
5.65196
5.06963
4.54456
4.08087
3.65697
3.2657
2.92207
2.62015
2.36225
2.16339
2.01099
1.86764
1.71875
1.57467
1.43471
1.30061
1.17959
1.06736
0.961146
0.862062
0.764263
0.668701
0.585352
0.517601
0.46065
0.411031
0.368353
0.330218
0.295643
0.265566
0.2392
0.216685
0.199334
0.185857
0.172596
0.158107
0.143216
0.127523
0.110774
0.093212
0.0738881
0.0526861
0.0313182
0.0104177
0.472558
1.46146
2.58449
3.94221
5.63687
7.725
10.0946
12.288
13.6033
13.9766
13.8735
13.3902
12.6515
11.9032
11.0937
10.2133
9.34668
8.38341
7.34635
6.44988
5.75725
5.16612
4.62401
4.15357
3.71922
3.31076
2.95792
2.64641
2.37836
2.18354
2.04674
1.91066
1.75785
1.61115
1.46697
1.32683
1.20401
1.09003
0.980933
0.880874
0.779156
0.676313
0.588599
0.520598
0.463938
0.413973
0.371692
0.333477
0.298141
0.267867
0.241113
0.218085
0.201501
0.189837
0.177553
0.162977
0.148157
0.132347
0.115225
0.097509
0.0774999
0.0549178
0.0323589
0.0107063
0.453735
1.40872
2.51149
3.88176
5.65818
7.95287
10.6922
13.3088
14.7501
14.9765
14.775
14.1641
13.2601
12.4488
11.5773
10.6132
9.72169
8.68397
7.50828
6.53507
5.84262
5.25099
4.68916
4.21766
3.77485
3.34546
2.98596
2.66495
2.38271
2.19404
2.08083
1.95434
1.79432
1.64566
1.49721
1.34931
1.22603
1.11098
0.998494
0.89912
0.793572
0.681308
0.588726
0.521754
0.466073
0.415627
0.374272
0.336162
0.299767
0.269537
0.242382
0.218451
0.202832
0.193739
0.182642
0.167671
0.153032
0.137153
0.11957
0.101962
0.0813226
0.0570741
0.0332165
0.0109128
0.429238
1.33783
2.40467
3.76781
5.60689
8.10931
11.2806
14.4476
16.0147
15.9919
15.6937
14.9447
13.8294
12.9789
12.0527
10.9857
10.1005
8.99048
7.63514
6.57774
5.91032
5.32805
4.73898
4.27499
3.82621
3.36898
3.00747
2.67734
2.37394
2.19365
2.11528
2.00075
1.82764
1.67864
1.52606
1.3674
1.24595
1.13066
1.01348
0.917425
0.808292
0.683367
0.58531
0.521301
0.467393
0.415954
0.376294
0.338494
0.300472
0.27071
0.243151
0.217653
0.203205
0.197749
0.188047
0.172115
0.157867
0.141978
0.123729
0.106638
0.0854571
0.0591117
0.0338244
0.0110123
0.399553
1.25002
2.26505
3.5987
5.47397
8.17435
11.8438
15.7388
17.425
16.9977
16.6292
15.7375
14.3403
13.4954
12.5251
11.3189
10.4913
9.31463
7.71881
6.56924
5.96432
5.40261
4.77083
4.3279
3.8764
3.37939
3.02408
2.68581
2.35
2.18041
2.1528
2.05255
1.85646
1.71063
1.55443
1.38
1.26423
1.14973
1.02514
0.936588
0.824369
0.681942
0.577741
0.519593
0.468347
0.41478
0.377995
0.340753
0.300104
0.271554
0.243629
0.215494
0.202427
0.202121
0.194006
0.176153
0.162698
0.146883
0.12756
0.111624
0.0900442
0.0609602
0.0340974
0.0109753
0.36531
1.14701
2.09466
3.37439
5.25144
8.12451
12.3564
17.229
19.018
17.9527
17.5843
16.5542
14.7649
14.0039
13.0041
11.5937
10.9053
9.67309
7.74723
6.49814
6.01098
5.48202
4.77946
4.3795
3.92968
3.37296
3.038
2.69364
2.30789
2.15134
2.19709
2.11317
1.87821
1.74244
1.58366
1.38527
1.28157
1.16913
1.03213
0.957652
0.84324
0.676163
0.56518
0.517165
0.469529
0.411718
0.379676
0.34331
0.298356
0.272289
0.244113
0.211688
0.200209
0.207205
0.200835
0.179507
0.167593
0.151973
0.130833
0.117044
0.095279
0.062509
0.0339308
0.0107686
0.327248
1.03095
1.8966
3.09675
4.93333
7.93319
12.7787
18.9801
20.8432
18.7923
18.5677
17.4154
15.0624
14.5153
13.5056
11.7802
11.3587
10.0892
7.70286
6.34962
6.06003
5.57634
4.75573
4.43413
3.99195
3.34339
3.05231
2.70552
2.2434
2.10215
2.25316
2.18712
1.88853
1.77529
1.61582
1.38031
1.29908
1.19029
1.03221
0.98202
0.866859
0.664709
0.546513
0.514806
0.471737
0.406067
0.381742
0.346666
0.294688
0.273216
0.245027
0.205834
0.196137
0.21348
0.208949
0.181719
0.172666
0.157418
0.133187
0.12307
0.101429
0.0635882
0.033202
0.0103578
0.286177
0.904291
1.67483
2.76975
4.51664
7.5718
13.0516
21.0741
22.967
19.4186
19.5977
18.355
15.1722
15.0492
14.0543
11.8326
11.8743
10.5952
7.56057
6.10476
6.12572
5.69912
4.68481
4.49803
4.07146
3.28055
3.07139
2.72804
2.15071
2.02686
2.32777
2.28033
1.88049
1.81118
1.65393
1.36065
1.31849
1.2153
1.02186
1.01161
0.89786
0.645641
0.520301
0.51365
0.476037
0.396667
0.38476
0.35151
0.288234
0.274753
0.246967
0.197385
0.18963
0.221597
0.218905
0.182078
0.178118
0.163486
0.134077
0.12995
0.108858
0.0639422
0.0317753
0.00971112
0.242937
0.769691
1.43406
2.39942
4.00251
7.01186
13.0876
23.6184
25.479
19.688
20.7084
19.4252
15.0066
15.6368
14.6876
11.6825
12.4842
11.2343
7.28492
5.74004
6.22812
5.8685
4.54384
4.58035
4.17972
3.16904
3.10151
2.77027
2.02198
1.91732
2.42992
2.40063
1.84358
1.85327
1.70241
1.31965
1.34244
1.2472
0.995769
1.04905
0.939754
0.616191
0.484744
0.515286
0.483842
0.381715
0.389534
0.3588
0.277661
0.277488
0.250751
0.185608
0.179897
0.232424
0.231448
0.179516
0.184276
0.170588
0.132694
0.138034
0.118047
0.0631949
0.0295127
0.00880471
0.198359
0.629848
1.17945
1.99376
3.39715
6.22849
12.7619
26.7525
28.4997
19.395
21.9567
20.702
14.4402
16.3265
15.4594
11.2313
13.2332
12.0637
6.82693
5.22693
6.3946
6.10851
4.29899
4.69442
4.33259
2.98616
3.15163
2.84439
1.84686
1.76267
2.57142
2.55835
1.76248
1.90651
1.76753
1.24767
1.3749
1.29034
0.946188
1.09801
0.997143
0.5725
0.437646
0.521863
0.497022
0.35853
0.397217
0.369847
0.261006
0.282251
0.257477
0.169541
0.165884
0.247103
0.247564
0.172485
0.191658
0.179331
0.12788
0.14782
0.129634
0.0608059
0.026291
0.00762955
0.153225
0.487389
0.916394
1.56231
2.71269
5.20568
11.8992
30.6547
32.1907
18.2523
23.4326
22.2932
13.2961
17.1895
16.4459
10.3392
14.184
13.1575
6.12012
4.53164
6.66129
6.45067
3.90185
4.85949
4.55157
2.69952
3.23451
2.96631
1.61187
1.54878
2.7675
2.76704
1.61544
1.97834
1.85796
1.13099
1.4216
1.35078
0.862112
1.1635
1.07596
0.509296
0.376413
0.536217
0.518031
0.323261
0.409449
0.386436
0.235464
0.290209
0.268581
0.147947
0.14621
0.267111
0.268562
0.158793
0.201047
0.190577
0.118001
0.160005
0.144438
0.0560142
0.0220276
0.0061984
0.108243
0.34475
0.650155
1.11563
1.96739
3.94363
10.2587
35.5504
36.7665
15.867
25.2712
24.3461
11.3306
18.3283
17.7519
8.81333
15.4225
14.6099
5.07585
3.6154
7.07454
6.93595
3.28504
5.10291
4.86538
2.26404
3.36807
3.15635
1.29986
1.25758
3.03744
3.04445
1.37245
2.07971
1.98545
0.950628
1.49069
1.43684
0.728303
1.25243
1.18373
0.419532
0.29807
0.561979
0.55006
0.270542
0.428529
0.410952
0.197132
0.302982
0.285894
0.119258
0.119106
0.294321
0.296164
0.135424
0.213592
0.205526
0.100809
0.175562
0.1635
0.0477719
0.0167162
0.00455157
0.0640281
0.204095
0.385648
0.664613
1.18517
2.46853
7.51676
41.7204
42.5093
11.7125
27.6681
27.0566
8.21387
19.8855
19.5178
6.39303
17.0657
16.538
3.57812
2.43508
7.69216
7.61716
2.35711
5.46276
5.31162
1.61854
3.57713
3.43976
0.889346
0.866467
3.40518
3.41352
0.992994
2.22621
2.16552
0.680793
1.59348
1.55961
0.524143
1.37412
1.32979
0.29396
0.19933
0.603668
0.597233
0.193081
0.457631
0.446529
0.140716
0.322798
0.311697
0.0815326
0.0823469
0.33106
0.332611
0.0983086
0.23092
0.225792
0.0732741
0.195817
0.188119
0.0346648
0.010471
0.00275913
0.0210893
0.0672527
0.127197
0.219665
0.394036
0.845107
3.2465
49.5096
49.7867
5.09673
30.8967
30.6793
3.50833
22.0553
21.9276
2.73323
19.2703
19.0847
1.47785
0.944573
8.58421
8.56172
0.996824
5.991
5.93858
0.681762
3.89555
3.84721
0.353892
0.347648
3.8999
3.90378
0.423581
2.43944
2.41823
0.287228
1.74529
1.73363
0.222323
1.54105
1.52552
0.12067
0.0766993
0.666758
0.664828
0.081205
0.501044
0.497212
0.059185
0.352669
0.348757
0.0323986
0.0331817
0.380165
0.380799
0.0420739
0.255279
0.253501
0.0313936
0.222561
0.219888
0.0148232
0.00358221
0.00091642
)
;

boundaryField
{
    left
    {
        type            calculated;
        value           uniform 0;
    }
    right
    {
        type            calculated;
        value           uniform 0;
    }
    interface
    {
        type            calculated;
        value           nonuniform List<scalar> 
64
(
0.0210893
0.0672527
0.127197
0.219665
0.394036
0.845107
3.2465
49.5096
49.7867
5.09673
30.8967
30.6793
3.50833
22.0553
21.9276
2.73323
19.2703
19.0847
1.47785
0.944573
8.58421
8.56172
0.996824
5.991
5.93858
0.681762
3.89555
3.84721
0.353892
0.347648
3.8999
3.90378
0.423581
2.43944
2.41823
0.287228
1.74529
1.73363
0.222323
1.54105
1.52552
0.12067
0.0766993
0.666758
0.664828
0.081205
0.501044
0.497212
0.059185
0.352669
0.348757
0.0323986
0.0331817
0.380165
0.380799
0.0420739
0.255279
0.253501
0.0313936
0.222561
0.219888
0.0148232
0.00358221
0.00091642
)
;
    }
    bottom
    {
        type            calculated;
        value           nonuniform List<scalar> 
64
(
0.0211524
0.0632126
0.104514
0.144485
0.182482
0.21779
0.249668
0.277412
0.300421
0.318269
0.330744
0.337868
0.339882
0.337211
0.330416
0.320143
0.307076
0.2919
0.275263
0.257756
0.239892
0.2221
0.204721
0.188016
0.172166
0.157292
0.143457
0.130683
0.118956
0.108233
0.0984534
0.0895454
0.0814306
0.0740314
0.0672745
0.0610939
0.0554318
0.0502391
0.0454747
0.0411044
0.0371
0.0334374
0.0300956
0.0270554
0.0242978
0.0218039
0.0195544
0.0175291
0.0157078
0.0140699
0.0125946
0.0112617
0.0100513
0.00894398
0.00792165
0.00696741
0.0060661
0.00520448
0.00437146
0.00355812
0.0027577
0.00196535
0.0011777
0.000392347
)
;
    }
    defaultFaces
    {
        type            empty;
    }
}


// ************************************************************************* //
