/*--------------------------------*- C++ -*----------------------------------*\
| =========                 |                                                 |
| \\      /  F ield         | OpenFOAM: The Open Source CFD Toolbox           |
|  \\    /   O peration     | Version:  5.x                                   |
|   \\  /    A nd           | Web:      www.OpenFOAM.org                      |
|    \\/     M anipulation  |                                                 |
\*---------------------------------------------------------------------------*/
FoamFile
{
    version     2.0;
    format      ascii;
    class       volScalarField;
    location    "3.7";
    object      T;
}
// * * * * * * * * * * * * * * * * * * * * * * * * * * * * * * * * * * * * * //

dimensions      [0 0 0 1 0 0 0];

internalField   nonuniform List<scalar> 
2048
(
9.85124
9.8519
9.85322
9.85517
9.85773
9.86087
9.86454
9.86867
9.87321
9.87806
9.88315
9.8884
9.89371
9.89902
9.90425
9.90934
9.91425
9.91894
9.92337
9.92754
9.93143
9.93504
9.93837
9.94143
9.94424
9.94681
9.94916
9.9513
9.95324
9.95502
9.95663
9.95809
9.95942
9.96064
9.96174
9.96274
9.96365
9.96447
9.96522
9.96589
9.9665
9.96705
9.96755
9.96799
9.96839
9.96875
9.96907
9.96936
9.96962
9.96985
9.97006
9.97025
9.97041
9.97056
9.97069
9.97081
9.97091
9.971
9.97107
9.97113
9.97118
9.97122
9.97125
9.97126
9.55968
9.56164
9.56554
9.57133
9.57894
9.58826
9.59915
9.61143
9.6249
9.63932
9.65444
9.67001
9.68578
9.70153
9.71704
9.73215
9.74669
9.76057
9.7737
9.78602
9.79752
9.80818
9.81803
9.82708
9.83537
9.84296
9.84988
9.85618
9.86192
9.86715
9.8719
9.87622
9.88015
9.88372
9.88697
9.88992
9.8926
9.89503
9.89723
9.89922
9.90102
9.90264
9.9041
9.90542
9.9066
9.90765
9.9086
9.90945
9.91022
9.9109
9.91151
9.91206
9.91255
9.91299
9.91337
9.91372
9.91402
9.91428
9.9145
9.91468
9.91483
9.91493
9.91501
9.91504
9.27939
9.28261
9.28901
9.29853
9.31105
9.32638
9.34431
9.36454
9.38673
9.41049
9.43539
9.46103
9.48698
9.51286
9.53834
9.56312
9.58697
9.6097
9.63118
9.65132
9.6701
9.6875
9.70355
9.7183
9.73181
9.74415
9.75541
9.76566
9.77499
9.78348
9.79121
9.79823
9.80462
9.81043
9.81571
9.82051
9.82486
9.82881
9.83239
9.83562
9.83855
9.84118
9.84355
9.84568
9.8476
9.84932
9.85086
9.85224
9.85348
9.85459
9.85558
9.85647
9.85726
9.85797
9.8586
9.85916
9.85965
9.86007
9.86043
9.86073
9.86096
9.86114
9.86126
9.86132
9.00913
9.01358
9.02243
9.0356
9.05292
9.07417
9.09903
9.1271
9.1579
9.19087
9.22542
9.26096
9.29691
9.33273
9.36794
9.40214
9.43501
9.46629
9.49581
9.52347
9.54921
9.57303
9.59499
9.61514
9.63358
9.65042
9.66577
9.67974
9.69246
9.70402
9.71453
9.7241
9.7328
9.74071
9.7479
9.75444
9.76037
9.76575
9.77063
9.77503
9.77901
9.78259
9.78582
9.78872
9.79133
9.79366
9.79576
9.79763
9.79932
9.80082
9.80218
9.80338
9.80447
9.80543
9.80629
9.80705
9.80771
9.80829
9.80878
9.80919
9.80951
9.80975
9.80992
9.81
8.74788
8.75353
8.76479
8.78153
8.8036
8.8307
8.86245
8.89833
8.93771
8.97986
9.02402
9.0694
9.11525
9.16086
9.20564
9.24906
9.29071
9.33028
9.36756
9.40243
9.43482
9.46477
9.49232
9.51758
9.54068
9.56174
9.58093
9.59839
9.61426
9.6287
9.64183
9.65377
9.66463
9.67451
9.68349
9.69165
9.69906
9.70578
9.71187
9.71737
9.72234
9.72681
9.73083
9.73445
9.7377
9.74061
9.74322
9.74555
9.74765
9.74953
9.75121
9.75271
9.75406
9.75526
9.75634
9.75728
9.75812
9.75884
9.75945
9.75996
9.76037
9.76068
9.76088
9.76098
8.4948
8.50162
8.51523
8.53551
8.56228
8.5952
8.63384
8.67754
8.72554
8.77692
8.83072
8.88595
8.94167
8.99701
9.05122
9.10369
9.15392
9.20155
9.24632
9.28811
9.32687
9.36263
9.39548
9.42555
9.45302
9.47804
9.50081
9.52152
9.54034
9.55744
9.573
9.58715
9.60002
9.61173
9.62238
9.63206
9.64085
9.64882
9.65603
9.66255
9.66844
9.67374
9.6785
9.68278
9.68662
9.69006
9.69314
9.6959
9.69838
9.7006
9.70258
9.70436
9.70596
9.70738
9.70865
9.70978
9.71077
9.71162
9.71236
9.71297
9.71345
9.71382
9.71406
9.71418
8.24917
8.25715
8.27306
8.29683
8.32825
8.36699
8.41254
8.46415
8.52087
8.58159
8.64513
8.71028
8.77588
8.84091
8.90449
8.96588
9.02451
9.07996
9.13198
9.18041
9.22523
9.2665
9.30435
9.33894
9.37049
9.3992
9.4253
9.44902
9.47056
9.49014
9.50793
9.52413
9.53886
9.55227
9.56447
9.57556
9.58562
9.59475
9.60302
9.61049
9.61722
9.62328
9.62873
9.63362
9.638
9.64193
9.64544
9.64859
9.65141
9.65394
9.65621
9.65824
9.66006
9.66169
9.66314
9.66443
9.66557
9.66656
9.6674
9.6681
9.66867
9.66909
9.66937
9.66951
8.01044
8.01953
8.03769
8.06488
8.10092
8.14548
8.19799
8.25761
8.32321
8.39345
8.46688
8.54206
8.61763
8.69236
8.76524
8.83543
8.90229
8.96537
9.02437
9.07917
9.12976
9.17624
9.21879
9.25761
9.29295
9.32509
9.35426
9.38075
9.4048
9.42664
9.44651
9.46458
9.48103
9.49601
9.50964
9.52203
9.53328
9.54349
9.55272
9.56106
9.56858
9.57535
9.58142
9.58687
9.59174
9.59611
9.60002
9.60352
9.60666
9.60947
9.61199
9.61426
9.61628
9.6181
9.61972
9.62117
9.62244
9.62355
9.6245
9.62529
9.62592
9.6264
9.62672
9.62688
7.77813
7.78829
7.80864
7.83916
7.87976
7.93014
7.9897
8.05747
8.13215
8.21213
8.29567
8.38105
8.46667
8.55114
8.63328
8.71217
8.78711
8.8576
8.92334
8.98423
9.0403
9.09169
9.13862
9.18138
9.22024
9.25553
9.28753
9.31656
9.3429
9.36682
9.38857
9.40837
9.4264
9.44282
9.45777
9.47137
9.48371
9.49491
9.50504
9.51418
9.52242
9.52983
9.53647
9.54242
9.54775
9.55252
9.55679
9.5606
9.56403
9.56709
9.56984
9.57231
9.57453
9.57652
9.5783
9.57988
9.58128
9.58251
9.58356
9.58443
9.58513
9.58566
9.58601
9.58619
7.55187
7.56305
7.58548
7.61924
7.66433
7.72051
7.78719
7.8633
7.94731
8.0373
8.1312
8.22698
8.32279
8.41703
8.50841
8.59591
8.67877
8.75646
8.82871
8.89541
8.95665
9.01264
9.06367
9.11007
9.15218
9.19035
9.22494
9.25628
9.2847
9.31051
9.33398
9.35535
9.37482
9.39257
9.40873
9.42344
9.43679
9.4489
9.45985
9.46974
9.47863
9.48663
9.49379
9.5002
9.50593
9.51105
9.51564
9.51974
9.52341
9.52671
9.52967
9.53232
9.53471
9.53685
9.53878
9.5405
9.54202
9.54335
9.54449
9.54545
9.54622
9.5468
9.54718
9.54738
7.33137
7.34351
7.36791
7.40476
7.45422
7.51617
7.59005
7.67471
7.76834
7.86867
7.97324
8.07965
8.18579
8.28986
8.39045
8.48646
8.57708
8.66178
8.74027
8.81249
8.87861
8.9389
8.99372
9.04347
9.08855
9.12936
9.16629
9.19973
9.23002
9.25753
9.28256
9.30536
9.32615
9.34512
9.3624
9.37812
9.3924
9.40534
9.41705
9.42761
9.43711
9.44563
9.45326
9.46008
9.46617
9.47161
9.47648
9.48084
9.48474
9.48823
9.49137
9.4942
9.49674
9.49902
9.50108
9.50292
9.50455
9.50599
9.50722
9.50826
9.50909
9.50972
9.51014
9.51035
7.11642
7.12942
7.15563
7.19541
7.24908
7.31673
7.3979
7.49134
7.59495
7.706
7.82156
7.93886
8.05548
8.16944
8.27921
8.38362
8.48185
8.57335
8.65783
8.73529
8.80596
8.87024
8.92855
8.98138
9.02917
9.07237
9.11141
9.14672
9.1787
9.20773
9.23415
9.25825
9.28025
9.30033
9.31863
9.33528
9.35041
9.36413
9.37653
9.38771
9.39775
9.40675
9.4148
9.42198
9.42839
9.43411
9.43923
9.44381
9.4479
9.45158
9.45488
9.45785
9.46053
9.46294
9.46512
9.46708
9.46882
9.47035
9.47167
9.47278
9.47367
9.47435
9.4748
9.47502
6.90686
6.92062
6.94845
6.99091
7.04859
7.12184
7.21036
7.31285
7.42684
7.54905
7.67599
7.80445
7.9317
8.05558
8.17449
8.28721
8.39288
8.49096
8.58117
8.66356
8.73848
8.80643
8.86795
8.92357
8.97381
9.01917
9.0601
9.09707
9.13054
9.16092
9.1886
9.21387
9.23696
9.25806
9.27729
9.29481
9.31072
9.32514
9.33817
9.34991
9.36046
9.36989
9.3783
9.3858
9.39249
9.39846
9.40379
9.40856
9.41283
9.41666
9.4201
9.4232
9.426
9.42853
9.43082
9.43288
9.43472
9.43634
9.43775
9.43893
9.43989
9.44061
9.44109
9.44133
6.70257
6.71697
6.7462
6.79106
6.85247
6.93116
7.02708
7.13891
7.26376
7.39763
7.53636
7.67627
7.81429
7.94812
8.07611
8.19701
8.30996
8.41441
8.51008
8.5971
8.67594
8.74725
8.81167
8.86983
8.92228
8.96955
9.01216
9.05061
9.08538
9.11694
9.14573
9.17205
9.19615
9.21817
9.23827
9.25657
9.27319
9.28826
9.30187
9.31412
9.32512
9.33493
9.34368
9.35145
9.35838
9.36456
9.37007
9.37501
9.37943
9.38339
9.38696
9.39017
9.39308
9.39571
9.3981
9.40026
9.4022
9.40391
9.40539
9.40665
9.40766
9.40843
9.40894
9.4092
6.5035
6.51839
6.54876
6.59567
6.66047
6.74436
6.84771
6.96922
7.10549
7.25157
7.40254
7.55419
7.7031
7.84688
7.98387
8.11281
8.23288
8.34349
8.44436
8.53566
8.61809
8.69245
8.75949
8.81992
8.87434
8.92332
8.96741
9.00713
9.04303
9.07562
9.10538
9.13266
9.15766
9.18055
9.20144
9.22046
9.23773
9.25338
9.26752
9.28024
9.29164
9.3018
9.31083
9.31884
9.32597
9.33232
9.338
9.34307
9.34762
9.3517
9.35537
9.35868
9.36168
9.3644
9.36689
9.36914
9.37117
9.37296
9.37453
9.37585
9.37693
9.37774
9.37828
9.37856
6.30961
6.32484
6.35604
6.4046
6.47235
6.56113
6.67188
6.80347
6.95182
7.11076
7.27443
7.43809
7.598
7.75169
7.89757
8.03441
8.1614
8.27799
8.38377
8.47903
8.56468
8.64178
8.71117
8.77362
8.8298
8.88029
8.92565
8.96648
9.00333
9.03678
9.0674
9.09554
9.12138
9.14505
9.16667
9.18635
9.20421
9.2204
9.23502
9.24817
9.25994
9.27041
9.27967
9.28788
9.29518
9.30168
9.30748
9.31268
9.31733
9.32151
9.32526
9.32865
9.33173
9.33454
9.33711
9.33945
9.34156
9.34344
9.34509
9.34648
9.34761
9.34847
9.34904
9.34933
6.12091
6.13631
6.16801
6.21773
6.28792
6.38117
6.49925
6.64134
6.80259
6.97508
7.15192
7.3279
7.49884
7.66234
7.81702
7.96157
8.09531
8.2177
8.32812
8.42695
8.51547
8.595
8.66647
8.73071
8.78845
8.84025
8.88672
8.92847
8.96611
9.00027
9.03162
9.06055
9.08716
9.11156
9.13386
9.15414
9.17254
9.18922
9.20428
9.21782
9.22992
9.24065
9.25012
9.25848
9.26591
9.27253
9.27845
9.28374
9.28849
9.29274
9.29657
9.30002
9.30316
9.30605
9.3087
9.31112
9.31332
9.31528
9.317
9.31846
9.31965
9.32055
9.32116
9.32146
5.93743
5.95281
5.98463
6.035
6.10699
6.20418
6.32943
6.48252
6.65766
6.84448
7.03494
7.22352
7.4055
7.57866
7.74199
7.89407
8.03437
8.16241
8.2772
8.3792
8.4702
8.55188
8.62516
8.69097
8.7501
8.80304
8.85042
8.89296
8.93121
8.96593
8.99791
9.02756
9.05489
9.07997
9.10289
9.12371
9.1426
9.15973
9.17519
9.18908
9.2015
9.21247
9.22209
9.23057
9.23811
9.24482
9.25082
9.25619
9.26101
9.26533
9.26921
9.27272
9.27591
9.27886
9.28159
9.2841
9.28637
9.28841
9.29021
9.29173
9.29299
9.29393
9.29456
9.29488
5.75919
5.77436
5.80592
5.85635
5.92942
6.02986
6.16199
6.32666
6.51697
6.71894
6.92342
7.12491
7.31783
7.50042
7.67228
7.83165
7.97831
8.11195
8.23083
8.33554
8.4286
8.51216
8.58703
8.65418
8.71455
8.76846
8.81661
8.85978
8.89849
8.9336
8.96609
8.99644
9.02446
9.05015
9.07366
9.09499
9.11431
9.13185
9.14766
9.16188
9.1746
9.18577
9.1955
9.20406
9.21167
9.21846
9.22452
9.22997
9.23484
9.23921
9.24314
9.24668
9.24991
9.25291
9.25572
9.2583
9.26066
9.26278
9.26464
9.26624
9.26756
9.26855
9.2692
9.26953
5.58624
5.601
5.63191
5.68177
5.7551
5.85792
5.99651
6.17338
6.38051
6.59848
6.81728
7.03203
7.23572
7.42739
7.60769
7.77406
7.92686
8.06615
8.18884
8.29572
8.3904
8.47564
8.55184
8.62014
8.68164
8.73636
8.7851
8.8288
8.8678
8.90312
8.93604
8.96708
8.99574
9.02201
9.04609
9.06786
9.08756
9.10548
9.12162
9.13614
9.14915
9.16048
9.17028
9.17888
9.18655
9.19338
9.19949
9.20499
9.20991
9.21431
9.21828
9.22184
9.22509
9.22814
9.23103
9.23369
9.23612
9.23832
9.24025
9.24192
9.2433
9.24434
9.24502
9.24535
5.41862
5.4328
5.46264
5.51128
5.58394
5.6881
5.83247
6.02223
6.24837
6.48317
6.71639
6.94489
7.15902
7.35927
7.54804
7.72106
7.87971
8.02486
8.15108
8.2595
8.3553
8.44208
8.51939
8.58861
8.6512
8.70658
8.75574
8.79989
8.83902
8.87435
8.90758
8.93938
8.96866
8.99545
9.02008
9.04224
9.06225
9.08055
9.09697
9.11175
9.12507
9.13655
9.14636
9.15495
9.16266
9.16951
9.17565
9.18121
9.18616
9.19058
9.19458
9.19815
9.2014
9.20449
9.20746
9.2102
9.2127
9.21498
9.21699
9.21872
9.22017
9.22126
9.22195
9.2223
5.25637
5.26978
5.29818
5.34493
5.41592
5.52014
5.66934
5.87266
6.12082
6.37312
6.62057
6.86355
7.08759
7.29572
7.49318
7.67237
7.83649
7.98801
8.11744
8.22661
8.32299
8.4113
8.48949
8.5594
8.62309
8.67897
8.72837
8.77295
8.81204
8.84713
8.88059
8.91324
8.94311
8.97035
8.99557
9.01804
9.0383
9.05698
9.07363
9.08865
9.1023
9.11391
9.12366
9.1322
9.13995
9.1468
9.15295
9.15856
9.16352
9.16795
9.17198
9.17555
9.17879
9.1819
9.18497
9.18778
9.19034
9.19271
9.19478
9.19658
9.19811
9.19925
9.19996
9.2003
5.09952
5.11201
5.13859
5.18279
5.25105
5.35385
5.50649
5.72397
5.99833
6.2685
6.52951
6.78817
7.02131
7.2363
7.44304
7.62771
7.79676
7.95556
8.08784
8.19677
8.29313
8.38316
8.46196
8.53225
8.5972
8.65339
8.70281
8.74789
8.78674
8.82133
8.85488
8.8886
8.91902
8.94661
8.97248
8.99519
9.0156
9.0347
9.05153
9.06673
9.0808
9.09249
9.10211
9.11055
9.11835
9.12519
9.13131
9.137
9.14196
9.14638
9.15045
9.15399
9.15718
9.16032
9.1635
9.16638
9.169
9.17146
9.17359
9.17545
9.17708
9.17826
9.17898
9.17933
4.94809
4.95951
4.98394
5.02497
5.08939
5.18907
5.34328
5.57521
5.88169
6.16953
6.44271
6.71904
6.96003
7.18044
7.39765
7.58682
7.75995
7.92761
8.06223
8.16971
8.2653
8.35755
8.43662
8.50691
8.57347
8.62971
8.67888
8.72465
8.76306
8.79677
8.83029
8.86543
8.89632
8.92412
8.95077
8.97361
8.99406
9.01366
9.0306
9.04592
9.06052
9.07227
9.08165
9.08993
9.09782
9.1046
9.11068
9.11647
9.12141
9.12579
9.12992
9.13342
9.13654
9.13968
9.14301
9.14595
9.14862
9.15119
9.15337
9.15528
9.15703
9.15826
9.15898
9.15932
4.80208
4.81231
4.8343
4.87157
4.93107
5.02574
5.17898
5.42508
5.77211
6.07643
6.35937
6.65667
6.9036
7.12737
7.35721
7.54941
7.72534
7.90437
8.04063
8.14509
8.23905
8.33446
8.41331
8.48308
8.55188
8.60783
8.65636
8.70321
8.74091
8.77332
8.8066
8.84373
8.87495
8.90275
8.93043
8.95324
8.97356
8.99384
9.01076
9.0261
9.04145
9.05318
9.06222
9.07026
9.07831
9.08501
9.091
9.09693
9.10183
9.10614
9.11037
9.1138
9.1168
9.11993
9.12347
9.12646
9.12915
9.13186
9.13407
9.13602
9.13791
9.13919
9.1399
9.14022
4.66146
4.67041
4.68972
4.72275
4.77628
4.86389
5.0129
5.27175
5.67146
5.98947
6.27829
6.6019
6.85189
7.07603
7.32218
7.51522
7.69194
7.8863
8.02305
8.12257
8.21382
8.31399
8.39192
8.46039
8.53248
8.58763
8.635
8.68361
8.72025
8.75082
8.78359
8.82356
8.85485
8.88233
8.91145
8.93401
8.95397
8.97521
8.99195
9.00715
9.02356
9.03521
9.04373
9.05146
9.05979
9.06634
9.07218
9.07836
9.08317
9.08737
9.09175
9.09509
9.09792
9.10102
9.10485
9.10786
9.11054
9.11342
9.11564
9.11761
9.11971
9.12101
9.1217
9.12201
4.52621
4.5338
4.55026
4.57861
4.62524
4.70369
4.84436
5.11268
5.58244
5.9089
6.19769
6.55603
6.80473
7.02499
7.29338
7.48398
7.65846
7.87411
8.00953
8.10176
8.1889
8.29639
8.37229
8.43839
8.51543
8.569
8.61446
8.66592
8.70103
8.72911
8.76095
8.80505
8.83597
8.86266
8.89388
8.91586
8.93512
8.95781
8.9741
8.98893
9.00688
9.0183
9.02614
9.03344
9.04224
9.04856
9.05417
9.06074
9.06538
9.06941
9.07405
9.07725
9.07985
9.08287
9.08712
9.0901
9.09273
9.09586
9.09806
9.10001
9.10237
9.1037
9.10435
9.10462
4.39625
4.40245
4.41594
4.43931
4.47824
4.54547
4.67288
4.94428
5.5089
5.8349
6.11499
6.52105
6.76193
6.9723
7.27213
7.45541
7.62311
7.86894
8.0001
8.08229
8.16344
8.28212
8.35433
8.41646
8.50103
8.55185
8.59435
8.65034
8.68324
8.70806
8.73832
8.78841
8.81827
8.84349
8.87785
8.89873
8.91684
8.94169
8.95716
8.97126
8.99147
9.00242
9.00936
9.0161
9.02567
9.03163
9.03687
9.04404
9.04843
9.0522
9.05725
9.06025
9.06255
9.06543
9.07027
9.07317
9.07566
9.07916
9.08127
9.08315
9.08589
9.0872
9.08779
9.08802
4.27153
4.27631
4.28676
4.30495
4.33558
4.38972
4.49826
4.76157
5.45621
5.76753
6.0266
6.4998
6.72326
6.9153
7.26043
7.42924
7.58353
7.87249
7.9947
8.06374
8.13632
8.27191
8.3379
8.39384
8.48976
8.53608
8.57412
8.63716
8.66682
8.68753
8.71522
8.77401
8.80169
8.82449
8.86351
8.88256
8.89885
8.92698
8.94107
8.95392
8.97742
8.98755
8.99334
8.99931
9.0101
9.0155
9.0202
9.02829
9.03228
9.03565
9.04134
9.04404
9.04597
9.04861
9.05431
9.057
9.05928
9.06329
9.06523
9.06698
9.07023
9.07149
9.07198
9.07218
4.15193
4.15531
4.1627
4.17563
4.19757
4.23711
4.3208
4.55769
5.43175
5.70665
5.9276
6.49637
6.68841
6.85045
7.26117
7.4052
7.53659
7.88716
7.99315
8.04578
8.10613
8.26685
8.32288
8.36951
8.48234
8.52156
8.55309
8.62681
8.65173
8.66743
8.69103
8.76235
8.78617
8.80524
8.85116
8.86728
8.88086
8.91387
8.92577
8.93663
8.9649
8.97362
8.97801
8.98293
8.99558
9.00012
9.00403
9.01351
9.01687
9.01967
9.02634
9.02861
9.03007
9.03233
9.03927
9.04159
9.0435
9.04826
9.04992
9.05141
9.05541
9.05652
9.0569
9.05704
4.03735
4.03935
4.04373
4.05141
4.0645
4.08844
4.14164
4.32334
5.4454
5.65176
5.81142
6.51639
6.65694
6.77307
7.27836
7.383
7.47814
7.9163
7.99496
8.02812
8.07105
8.2685
8.30909
8.34216
8.4798
8.50815
8.53038
8.61993
8.63787
8.64772
8.66495
8.75414
8.77162
8.78517
8.84119
8.85284
8.86247
8.90264
8.91121
8.91902
8.95415
8.96057
8.96333
8.9668
8.9822
8.98546
8.98823
8.99977
9.00218
9.00416
9.01227
9.0139
9.01482
9.01648
9.02517
9.02687
9.02824
9.03409
9.03529
9.03638
9.04141
9.04226
9.0425
9.04258
3.92768
3.92834
3.92978
3.93231
3.93664
3.94462
3.96305
4.04608
5.51023
5.60191
5.6695
6.56743
6.62823
6.67707
7.31746
7.36231
7.40287
7.9645
7.99927
8.01069
8.02878
8.27894
8.29634
8.31009
8.48356
8.49567
8.50486
8.61741
8.62509
8.62847
8.63595
8.75034
8.75794
8.76358
8.83418
8.83915
8.84315
8.89369
8.89733
8.90064
8.94549
8.94831
8.94926
8.95071
8.97009
8.97148
8.97263
8.98714
8.98817
8.98899
8.99919
8.99989
9.0002
9.00092
9.01208
9.01282
9.0134
9.0208
9.02132
9.02178
9.02827
9.02865
9.02874
9.02877
)
;

boundaryField
{
    left
    {
        type            zeroGradient;
    }
    right
    {
        type            zeroGradient;
    }
    interface
    {
        type            fixedValue;
        value           nonuniform List<scalar> 
64
(
3.87405
3.87405
3.87405
3.87405
3.87405
3.87405
3.87405
3.87405
5.57818
5.57818
5.57818
6.61451
6.61451
6.61451
7.35231
7.35231
7.35231
8.00199
8.00199
8.00199
8.00199
8.2902
8.2902
8.2902
8.48966
8.48966
8.48966
8.61895
8.61895
8.61895
8.61895
8.75131
8.75131
8.75131
8.83248
8.83248
8.83248
8.89056
8.89056
8.89056
8.94237
8.94237
8.94237
8.94237
8.96466
8.96466
8.96466
8.98133
8.98133
8.98133
8.99305
8.99305
8.99305
8.99305
9.00596
9.00596
9.00596
9.01449
9.01449
9.01449
9.02202
9.02202
9.02202
9.02202
)
;
    }
    bottom
    {
        type            fixedValue;
        value           uniform 10;
    }
    defaultFaces
    {
        type            empty;
    }
}


// ************************************************************************* //
