/*--------------------------------*- C++ -*----------------------------------*\
| =========                 |                                                 |
| \\      /  F ield         | OpenFOAM: The Open Source CFD Toolbox           |
|  \\    /   O peration     | Version:  5.x                                   |
|   \\  /    A nd           | Web:      www.OpenFOAM.org                      |
|    \\/     M anipulation  |                                                 |
\*---------------------------------------------------------------------------*/
FoamFile
{
    version     2.0;
    format      ascii;
    class       volScalarField;
    location    "0.7";
    object      gradTy;
}
// * * * * * * * * * * * * * * * * * * * * * * * * * * * * * * * * * * * * * //

dimensions      [0 -1 0 1 0 0 0];

internalField   nonuniform List<scalar> 
2048
(
-27.4726
-27.4424
-27.3825
-27.2942
-27.179
-27.0395
-26.8787
-26.7003
-26.5085
-26.3077
-26.1024
-25.897
-25.6953
-25.5007
-25.316
-25.1429
-24.983
-24.8368
-24.7044
-24.5858
-24.4802
-24.387
-24.3051
-24.2336
-24.1715
-24.1177
-24.0713
-24.0313
-23.9971
-23.9677
-23.9427
-23.9213
-23.903
-23.8875
-23.8743
-23.8631
-23.8535
-23.8455
-23.8386
-23.8328
-23.8279
-23.8238
-23.8203
-23.8173
-23.8148
-23.8127
-23.8109
-23.8094
-23.8081
-23.807
-23.8061
-23.8053
-23.8046
-23.804
-23.8034
-23.803
-23.8025
-23.8022
-23.8019
-23.8016
-23.8014
-23.8012
-23.8011
-23.8011
-27.4952
-27.4646
-27.4038
-27.314
-27.1968
-27.0548
-26.8909
-26.7091
-26.5136
-26.3091
-26.1002
-25.8915
-25.6871
-25.4903
-25.3038
-25.1297
-24.9691
-24.8227
-24.6905
-24.5722
-24.4673
-24.3747
-24.2936
-24.2229
-24.1616
-24.1085
-24.0628
-24.0235
-23.9898
-23.961
-23.9364
-23.9154
-23.8975
-23.8823
-23.8693
-23.8583
-23.849
-23.8411
-23.8344
-23.8287
-23.8239
-23.8199
-23.8165
-23.8136
-23.8111
-23.8091
-23.8073
-23.8058
-23.8046
-23.8035
-23.8026
-23.8018
-23.8011
-23.8005
-23.8
-23.7995
-23.7991
-23.7988
-23.7985
-23.7982
-23.798
-23.7978
-23.7977
-23.7977
-27.5385
-27.5069
-27.4444
-27.3519
-27.231
-27.0841
-26.9144
-26.7259
-26.5233
-26.3116
-26.0958
-25.8809
-25.6711
-25.4701
-25.2804
-25.1042
-24.9425
-24.7957
-24.6639
-24.5464
-24.4426
-24.3515
-24.2719
-24.2027
-24.1428
-24.0912
-24.0468
-24.0087
-23.9761
-23.9483
-23.9246
-23.9043
-23.8871
-23.8724
-23.86
-23.8494
-23.8405
-23.8329
-23.8265
-23.821
-23.8164
-23.8125
-23.8092
-23.8065
-23.8041
-23.8022
-23.8005
-23.7991
-23.7979
-23.7969
-23.796
-23.7952
-23.7946
-23.794
-23.7935
-23.793
-23.7926
-23.7923
-23.792
-23.7917
-23.7915
-23.7913
-23.7912
-23.7912
-27.6001
-27.5674
-27.5025
-27.4062
-27.2799
-27.1262
-26.9481
-26.7501
-26.5371
-26.3149
-26.0891
-25.8652
-25.6477
-25.4406
-25.2466
-25.0675
-24.9043
-24.7572
-24.6259
-24.5098
-24.4077
-24.3186
-24.2412
-24.1742
-24.1165
-24.0669
-24.0244
-23.988
-23.957
-23.9305
-23.908
-23.8888
-23.8725
-23.8587
-23.8469
-23.8369
-23.8285
-23.8213
-23.8153
-23.8102
-23.8058
-23.8022
-23.7991
-23.7965
-23.7943
-23.7925
-23.7909
-23.7896
-23.7885
-23.7875
-23.7867
-23.786
-23.7853
-23.7848
-23.7843
-23.7839
-23.7835
-23.7831
-23.7828
-23.7826
-23.7824
-23.7822
-23.7821
-23.782
-27.6783
-27.6443
-27.5765
-27.4756
-27.3428
-27.1803
-26.9915
-26.7809
-26.5545
-26.3186
-26.0798
-25.8442
-25.6169
-25.4022
-25.2027
-25.0202
-24.8554
-24.7081
-24.5778
-24.4635
-24.3638
-24.2774
-24.2027
-24.1386
-24.0836
-24.0366
-23.9964
-23.9623
-23.9332
-23.9084
-23.8874
-23.8695
-23.8544
-23.8415
-23.8306
-23.8214
-23.8136
-23.807
-23.8014
-23.7966
-23.7926
-23.7893
-23.7864
-23.7841
-23.782
-23.7804
-23.7789
-23.7777
-23.7767
-23.7758
-23.7751
-23.7744
-23.7738
-23.7733
-23.7729
-23.7724
-23.7721
-23.7717
-23.7714
-23.7712
-23.7709
-23.7708
-23.7706
-23.7706
-27.7716
-27.7361
-27.6652
-27.5592
-27.4187
-27.2459
-27.044
-26.8182
-26.5751
-26.3222
-26.0673
-25.8175
-25.5785
-25.3548
-25.149
-24.9628
-24.7964
-24.6493
-24.5205
-24.4086
-24.3119
-24.2288
-24.1577
-24.097
-24.0453
-24.0013
-23.964
-23.9323
-23.9055
-23.8828
-23.8635
-23.8472
-23.8333
-23.8216
-23.8117
-23.8033
-23.7962
-23.7902
-23.7851
-23.7808
-23.7772
-23.7742
-23.7717
-23.7695
-23.7677
-23.7662
-23.7649
-23.7638
-23.7629
-23.7621
-23.7614
-23.7609
-23.7603
-23.7599
-23.7594
-23.7591
-23.7587
-23.7584
-23.7581
-23.7578
-23.7576
-23.7574
-23.7572
-23.7572
-27.8784
-27.8415
-27.7675
-27.6561
-27.5073
-27.3228
-27.1057
-26.8617
-26.5986
-26.3254
-26.0513
-25.7847
-25.5321
-25.2982
-25.0857
-24.8956
-24.7279
-24.5815
-24.4548
-24.346
-24.2531
-24.1741
-24.107
-24.0503
-24.0024
-23.9619
-23.9278
-23.899
-23.8747
-23.8542
-23.8369
-23.8223
-23.8099
-23.7994
-23.7906
-23.7831
-23.7768
-23.7714
-23.767
-23.7632
-23.76
-23.7573
-23.7551
-23.7532
-23.7516
-23.7503
-23.7492
-23.7482
-23.7474
-23.7468
-23.7462
-23.7456
-23.7452
-23.7448
-23.7444
-23.744
-23.7437
-23.7433
-23.743
-23.7428
-23.7425
-23.7423
-23.7422
-23.7422
-27.9974
-27.9594
-27.8825
-27.7657
-27.6083
-27.4109
-27.1765
-26.9114
-26.6247
-26.3275
-26.031
-25.7451
-25.4772
-25.2323
-25.0127
-24.819
-24.6504
-24.5053
-24.3815
-24.2767
-24.1883
-24.114
-24.0517
-23.9995
-23.9558
-23.9193
-23.8886
-23.863
-23.8415
-23.8234
-23.8082
-23.7954
-23.7845
-23.7754
-23.7677
-23.7612
-23.7557
-23.7511
-23.7472
-23.7439
-23.7412
-23.7389
-23.737
-23.7354
-23.7341
-23.7329
-23.732
-23.7312
-23.7305
-23.73
-23.7295
-23.729
-23.7286
-23.7283
-23.7279
-23.7276
-23.7272
-23.7269
-23.7266
-23.7263
-23.7261
-23.7259
-23.7257
-23.7257
-28.1273
-28.0883
-28.0092
-27.8877
-27.7216
-27.5105
-27.2568
-26.9673
-26.6531
-26.328
-26.0057
-25.698
-25.4133
-25.1566
-24.9299
-24.733
-24.5644
-24.4215
-24.3015
-24.2014
-24.1183
-24.0495
-23.9925
-23.9454
-23.9064
-23.874
-23.8472
-23.8249
-23.8063
-23.7908
-23.7778
-23.7669
-23.7577
-23.75
-23.7434
-23.7379
-23.7333
-23.7294
-23.7262
-23.7235
-23.7212
-23.7193
-23.7177
-23.7164
-23.7153
-23.7144
-23.7137
-23.713
-23.7125
-23.712
-23.7116
-23.7113
-23.7109
-23.7106
-23.7103
-23.71
-23.7097
-23.7094
-23.7091
-23.7088
-23.7085
-23.7083
-23.7081
-23.7081
-28.2664
-28.2272
-28.1467
-28.0214
-27.8473
-27.622
-27.3471
-27.0298
-26.6837
-26.3263
-25.9745
-25.6425
-25.3396
-25.0708
-24.8374
-24.638
-24.4702
-24.3305
-24.2153
-24.121
-24.0441
-23.9814
-23.9304
-23.8888
-23.8547
-23.8269
-23.8041
-23.7853
-23.7698
-23.7569
-23.7463
-23.7373
-23.7298
-23.7235
-23.7181
-23.7137
-23.7099
-23.7068
-23.7042
-23.702
-23.7002
-23.6987
-23.6975
-23.6965
-23.6956
-23.695
-23.6944
-23.6939
-23.6935
-23.6931
-23.6928
-23.6926
-23.6923
-23.692
-23.6918
-23.6915
-23.6912
-23.6909
-23.6906
-23.6903
-23.69
-23.6898
-23.6896
-23.6896
-28.4133
-28.3746
-28.2942
-28.1667
-27.9857
-27.7463
-27.4482
-27.0993
-26.7163
-26.3215
-25.9364
-25.5776
-25.2555
-24.9746
-24.735
-24.5343
-24.3685
-24.2332
-24.1239
-24.0363
-23.9664
-23.9106
-23.866
-23.8303
-23.8016
-23.7785
-23.7598
-23.7447
-23.7324
-23.7223
-23.7139
-23.707
-23.7011
-23.6962
-23.6921
-23.6887
-23.6858
-23.6834
-23.6815
-23.6798
-23.6785
-23.6774
-23.6765
-23.6758
-23.6752
-23.6748
-23.6744
-23.674
-23.6738
-23.6735
-23.6733
-23.6731
-23.6729
-23.6727
-23.6725
-23.6722
-23.672
-23.6717
-23.6713
-23.671
-23.6707
-23.6705
-23.6703
-23.6703
-28.5663
-28.5291
-28.4505
-28.3231
-28.1371
-27.8842
-27.5613
-27.1765
-26.7507
-26.3129
-25.8902
-25.5022
-25.1601
-24.8675
-24.6229
-24.4221
-24.2597
-24.13
-24.0278
-23.948
-23.886
-23.8378
-23.8001
-23.7707
-23.7475
-23.7293
-23.7149
-23.7035
-23.6945
-23.6871
-23.6812
-23.6762
-23.672
-23.6685
-23.6656
-23.6632
-23.6612
-23.6595
-23.6582
-23.6571
-23.6563
-23.6556
-23.655
-23.6546
-23.6543
-23.654
-23.6538
-23.6536
-23.6535
-23.6534
-23.6533
-23.6532
-23.653
-23.6529
-23.6527
-23.6525
-23.6522
-23.6519
-23.6516
-23.6512
-23.6509
-23.6507
-23.6505
-23.6505
-28.7236
-28.6891
-28.6145
-28.4901
-28.302
-28.037
-27.6879
-27.2623
-26.7866
-26.2992
-25.8345
-25.4151
-25.0527
-24.7493
-24.5011
-24.3019
-24.1444
-24.0218
-23.9278
-23.8569
-23.8037
-23.7636
-23.7334
-23.7105
-23.6931
-23.6799
-23.6699
-23.6622
-23.6564
-23.6519
-23.6483
-23.6452
-23.6427
-23.6406
-23.6388
-23.6374
-23.6363
-23.6354
-23.6347
-23.6341
-23.6337
-23.6334
-23.6332
-23.6331
-23.633
-23.6329
-23.6329
-23.6329
-23.6329
-23.6329
-23.6328
-23.6328
-23.6328
-23.6327
-23.6325
-23.6324
-23.6321
-23.6318
-23.6315
-23.6311
-23.6308
-23.6305
-23.6303
-23.6302
-28.8835
-28.8529
-28.7851
-28.6674
-28.481
-28.2064
-27.8301
-27.3579
-26.8235
-26.279
-25.7677
-25.315
-24.9324
-24.6198
-24.3699
-24.1741
-24.0233
-23.9091
-23.8247
-23.7638
-23.7201
-23.6889
-23.6664
-23.6503
-23.6388
-23.6306
-23.625
-23.6211
-23.6186
-23.6168
-23.6155
-23.6144
-23.6135
-23.6127
-23.612
-23.6116
-23.6113
-23.6111
-23.611
-23.6109
-23.611
-23.611
-23.6112
-23.6113
-23.6115
-23.6116
-23.6118
-23.6119
-23.612
-23.6121
-23.6122
-23.6122
-23.6123
-23.6122
-23.6121
-23.612
-23.6118
-23.6115
-23.6111
-23.6107
-23.6103
-23.61
-23.6098
-23.6097
-29.0439
-29.0189
-28.9609
-28.8542
-28.6746
-28.3941
-27.9902
-27.4648
-26.8609
-26.2506
-25.688
-25.2004
-24.7986
-24.4788
-24.2296
-24.0395
-23.8972
-23.7928
-23.7191
-23.6692
-23.6361
-23.6141
-23.5997
-23.5905
-23.5849
-23.5818
-23.5806
-23.5805
-23.5812
-23.5822
-23.5832
-23.5839
-23.5844
-23.5849
-23.5854
-23.5858
-23.5863
-23.5868
-23.5873
-23.5877
-23.5882
-23.5886
-23.5891
-23.5895
-23.5899
-23.5903
-23.5906
-23.5908
-23.5911
-23.5913
-23.5914
-23.5916
-23.5917
-23.5917
-23.5916
-23.5915
-23.5913
-23.591
-23.5907
-23.5902
-23.5898
-23.5894
-23.5892
-23.5891
-29.2029
-29.1851
-29.1402
-29.0497
-28.8832
-28.6023
-28.1715
-27.5851
-26.8978
-26.2116
-25.5936
-25.0699
-24.6506
-24.3267
-24.0806
-23.8986
-23.7667
-23.6733
-23.6115
-23.5739
-23.5522
-23.5399
-23.5338
-23.5316
-23.5319
-23.5338
-23.5369
-23.5405
-23.5444
-23.5482
-23.5513
-23.5538
-23.5558
-23.5574
-23.5589
-23.5603
-23.5615
-23.5627
-23.5637
-23.5646
-23.5655
-23.5663
-23.5671
-23.5678
-23.5684
-23.5689
-23.5694
-23.5698
-23.5701
-23.5704
-23.5707
-23.5709
-23.571
-23.5711
-23.5711
-23.5711
-23.5709
-23.5706
-23.5702
-23.5697
-23.5692
-23.5687
-23.5685
-23.5683
-29.3586
-29.3496
-29.3213
-29.2527
-29.107
-28.8334
-28.378
-27.7214
-26.9323
-26.1592
-25.4824
-24.9219
-24.4878
-24.1637
-23.9236
-23.7523
-23.6329
-23.5515
-23.5026
-23.4785
-23.469
-23.4667
-23.469
-23.4739
-23.4799
-23.4868
-23.4942
-23.5014
-23.5084
-23.5149
-23.5202
-23.5243
-23.5275
-23.5304
-23.5328
-23.535
-23.537
-23.5388
-23.5403
-23.5417
-23.5429
-23.5441
-23.5451
-23.5461
-23.5469
-23.5476
-23.5483
-23.5488
-23.5492
-23.5496
-23.55
-23.5503
-23.5505
-23.5506
-23.5507
-23.5506
-23.5505
-23.5502
-23.5498
-23.5492
-23.5486
-23.548
-23.5478
-23.5475
-29.5091
-29.5104
-29.5022
-29.4618
-29.3461
-29.09
-28.6147
-27.8774
-26.9619
-26.0897
-25.3527
-24.7549
-24.3098
-23.9904
-23.7591
-23.6013
-23.4966
-23.4277
-23.3928
-23.3836
-23.3873
-23.3951
-23.4058
-23.4177
-23.4293
-23.441
-23.4525
-23.4631
-23.4732
-23.4824
-23.4899
-23.4954
-23.4999
-23.5037
-23.507
-23.5101
-23.5128
-23.5151
-23.5172
-23.519
-23.5206
-23.522
-23.5234
-23.5246
-23.5256
-23.5265
-23.5273
-23.5279
-23.5285
-23.529
-23.5294
-23.5297
-23.53
-23.5302
-23.5303
-23.5303
-23.5302
-23.53
-23.5295
-23.5288
-23.5281
-23.5274
-23.5271
-23.5268
-29.6526
-29.6656
-29.681
-29.6752
-29.5999
-29.3746
-28.888
-28.0583
-26.9821
-25.9984
-25.2029
-24.5672
-24.1162
-23.8082
-23.5879
-23.4467
-23.359
-23.3025
-23.2823
-23.2898
-23.3076
-23.3252
-23.3443
-23.3632
-23.38
-23.3964
-23.4121
-23.4259
-23.439
-23.451
-23.4604
-23.4671
-23.4727
-23.4776
-23.4817
-23.4855
-23.4889
-23.4918
-23.4943
-23.4966
-23.4984
-23.5002
-23.5018
-23.5033
-23.5045
-23.5055
-23.5064
-23.5072
-23.5079
-23.5084
-23.5089
-23.5093
-23.5097
-23.51
-23.5101
-23.5102
-23.5101
-23.5099
-23.5094
-23.5086
-23.5078
-23.5069
-23.5065
-23.5062
-29.7877
-29.8135
-29.8554
-29.8904
-29.8672
-29.6895
-29.2055
-28.2715
-26.9859
-25.8798
-25.0329
-24.3566
-23.9069
-23.6187
-23.4104
-23.2893
-23.2215
-23.176
-23.1714
-23.1976
-23.2306
-23.2574
-23.2847
-23.3107
-23.3322
-23.3532
-23.3729
-23.3896
-23.4058
-23.4206
-23.432
-23.4396
-23.4461
-23.452
-23.4568
-23.4613
-23.4654
-23.4688
-23.4718
-23.4744
-23.4766
-23.4786
-23.4805
-23.4822
-23.4836
-23.4848
-23.4858
-23.4867
-23.4874
-23.4881
-23.4886
-23.4891
-23.4895
-23.4899
-23.4901
-23.4902
-23.4901
-23.4899
-23.4894
-23.4885
-23.4875
-23.4864
-23.486
-23.4856
-29.9128
-29.9522
-30.0232
-30.1049
-30.1461
-30.0367
-29.5767
-28.5278
-26.9625
-25.7269
-24.844
-24.1205
-23.6818
-23.4248
-23.2268
-23.13
-23.086
-23.0482
-23.06
-23.1077
-23.1573
-23.1918
-23.2273
-23.2605
-23.2858
-23.3114
-23.3352
-23.3544
-23.3734
-23.3913
-23.4046
-23.4127
-23.4201
-23.4269
-23.4323
-23.4375
-23.4423
-23.4461
-23.4496
-23.4526
-23.4549
-23.4572
-23.4595
-23.4614
-23.4629
-23.4643
-23.4654
-23.4663
-23.4672
-23.4679
-23.4685
-23.4691
-23.4696
-23.47
-23.4702
-23.4704
-23.4704
-23.4702
-23.4697
-23.4686
-23.4673
-23.4661
-23.4656
-23.4653
-30.027
-30.0803
-30.1821
-30.3156
-30.4335
-30.417
-30.0124
-28.8436
-26.8947
-25.5319
-24.6408
-23.855
-23.441
-23.2306
-23.0367
-22.9697
-22.9548
-22.9185
-22.9479
-23.0207
-23.0885
-23.1284
-23.172
-23.2129
-23.2408
-23.271
-23.2992
-23.32
-23.3421
-23.3633
-23.3786
-23.3865
-23.3947
-23.4025
-23.4082
-23.4142
-23.4198
-23.4239
-23.4278
-23.4312
-23.4336
-23.4362
-23.4388
-23.4409
-23.4426
-23.444
-23.4453
-23.4463
-23.4472
-23.448
-23.4487
-23.4493
-23.4499
-23.4503
-23.4506
-23.4508
-23.4509
-23.4508
-23.4503
-23.4491
-23.4474
-23.4459
-23.4454
-23.4453
-30.1293
-30.1966
-30.33
-30.5189
-30.7253
-30.8296
-30.5251
-29.2432
-26.7564
-25.2857
-24.4326
-23.554
-23.1845
-23.0422
-22.8384
-22.8094
-22.8314
-22.7857
-22.8346
-22.9377
-23.0257
-23.0666
-23.119
-23.1685
-23.197
-23.2321
-23.2651
-23.2865
-23.3116
-23.3366
-23.3541
-23.3608
-23.3698
-23.379
-23.3846
-23.3915
-23.3979
-23.4021
-23.4065
-23.4104
-23.4127
-23.4155
-23.4185
-23.4209
-23.4226
-23.4242
-23.4256
-23.4266
-23.4276
-23.4285
-23.4292
-23.4299
-23.4305
-23.431
-23.4313
-23.4316
-23.4318
-23.4317
-23.4313
-23.4299
-23.4276
-23.4261
-23.4255
-23.4256
-30.2193
-30.3002
-30.4649
-30.7114
-31.0162
-31.2713
-31.1279
-29.7632
-26.5077
-24.9789
-24.2356
-23.2073
-22.9126
-22.8684
-22.6283
-22.6497
-22.7207
-22.6473
-22.7196
-22.8595
-22.9705
-23.0058
-23.0681
-23.1279
-23.1538
-23.1946
-23.2334
-23.2535
-23.2821
-23.3116
-23.3314
-23.3355
-23.3457
-23.3564
-23.3615
-23.3693
-23.3767
-23.3807
-23.3858
-23.3901
-23.3922
-23.3953
-23.3987
-23.4014
-23.403
-23.4048
-23.4063
-23.4073
-23.4084
-23.4094
-23.4101
-23.4108
-23.4116
-23.4121
-23.4124
-23.4128
-23.4131
-23.413
-23.4127
-23.4112
-23.4082
-23.4065
-23.4061
-23.4063
-30.2967
-30.3903
-30.5852
-30.8894
-31.2997
-31.736
-31.833
-30.4586
-26.0891
-24.6026
-24.0763
-22.7984
-22.6259
-22.7221
-22.3996
-22.4913
-22.6294
-22.4994
-22.6021
-22.7874
-22.9253
-22.9445
-23.0194
-23.0924
-23.1106
-23.1587
-23.2047
-23.2208
-23.2534
-23.2884
-23.311
-23.3104
-23.3221
-23.335
-23.3388
-23.3479
-23.3565
-23.3599
-23.3656
-23.3707
-23.3721
-23.3756
-23.3794
-23.3825
-23.384
-23.3859
-23.3876
-23.3885
-23.3897
-23.3908
-23.3915
-23.3923
-23.3931
-23.3937
-23.394
-23.3945
-23.3949
-23.3948
-23.3948
-23.3932
-23.389
-23.3874
-23.3871
-23.3876
-30.3616
-30.4669
-30.6897
-31.0494
-31.5686
-32.2134
-32.6492
-31.4104
-25.4126
-24.1502
-23.9951
-22.3011
-22.3254
-22.6219
-22.1409
-22.3351
-22.5675
-22.3353
-22.4815
-22.7227
-22.8932
-22.8803
-22.9727
-23.0633
-23.0661
-23.1242
-23.1797
-23.1876
-23.2254
-23.2671
-23.2935
-23.2849
-23.2992
-23.3151
-23.3162
-23.3271
-23.3374
-23.3394
-23.3462
-23.3521
-23.3525
-23.3564
-23.3609
-23.3643
-23.3654
-23.3675
-23.3694
-23.3703
-23.3716
-23.3728
-23.3734
-23.3743
-23.3752
-23.3759
-23.376
-23.3767
-23.3773
-23.3771
-23.3774
-23.376
-23.3701
-23.3688
-23.3687
-23.3693
-30.4143
-30.5297
-30.7774
-31.1885
-31.8147
-32.6887
-33.5776
-32.7376
-24.3509
-23.6195
-24.0516
-21.6747
-22.0137
-22.5938
-21.8341
-22.182
-22.5486
-22.1448
-22.3575
-22.6666
-22.8783
-22.8093
-22.9278
-23.0429
-23.0185
-23.0911
-23.1598
-23.153
-23.198
-23.2477
-23.2794
-23.2582
-23.2769
-23.2971
-23.2935
-23.3069
-23.3196
-23.3191
-23.3273
-23.3346
-23.3331
-23.3377
-23.3429
-23.3468
-23.3473
-23.3497
-23.3519
-23.3525
-23.3539
-23.3553
-23.3557
-23.3567
-23.3578
-23.3586
-23.3585
-23.3594
-23.3602
-23.3598
-23.3606
-23.3597
-23.3513
-23.3505
-23.3508
-23.3514
-30.4552
-30.5793
-30.8479
-31.3042
-32.0302
-33.1426
-34.6054
-34.6114
-22.7222
-23.0177
-24.3298
-20.8577
-21.6956
-22.6737
-21.4515
-22.0336
-22.5918
-21.9129
-22.2306
-22.6205
-22.8861
-22.726
-22.8848
-23.0341
-22.9647
-23.0594
-23.1463
-23.1153
-23.171
-23.2302
-23.2699
-23.2291
-23.255
-23.2814
-23.2701
-23.2873
-23.3033
-23.2987
-23.309
-23.3181
-23.3137
-23.3194
-23.3254
-23.3299
-23.3295
-23.3323
-23.3349
-23.335
-23.3367
-23.3383
-23.3384
-23.3396
-23.3408
-23.3418
-23.3414
-23.3424
-23.3435
-23.3429
-23.3443
-23.3444
-23.3324
-23.3325
-23.3333
-23.3338
-30.4849
-30.616
-30.9013
-31.3948
-32.2078
-33.5514
-35.6969
-37.2749
-20.2717
-22.3663
-24.9458
-19.7602
-21.3805
-22.9108
-20.9531
-21.893
-22.7233
-21.6176
-22.1033
-22.585
-22.9243
-22.6225
-22.8439
-23.0413
-22.9009
-23.0292
-23.1417
-23.0725
-23.1445
-23.2145
-23.2662
-23.1959
-23.2335
-23.2686
-23.245
-23.2682
-23.2886
-23.2775
-23.2911
-23.3028
-23.2939
-23.3013
-23.3084
-23.3136
-23.3117
-23.3152
-23.3183
-23.3176
-23.3197
-23.3216
-23.3213
-23.3227
-23.3241
-23.3253
-23.3243
-23.3257
-23.3273
-23.326
-23.3283
-23.3301
-23.313
-23.3146
-23.3161
-23.3165
-30.5043
-30.6407
-30.9382
-31.4599
-32.3419
-33.8888
-36.781
-41.0672
-16.6481
-21.709
-26.0547
-18.2542
-21.0843
-23.3709
-20.2819
-21.7652
-22.9784
-21.2282
-21.9813
-22.5602
-23.0033
-22.4881
-22.8059
-23.0703
-22.8213
-23.0009
-23.1489
-23.0215
-23.1188
-23.2003
-23.2704
-23.1565
-23.2127
-23.2599
-23.2175
-23.2496
-23.2763
-23.2552
-23.2737
-23.2892
-23.2734
-23.2837
-23.2917
-23.2981
-23.2939
-23.2984
-23.3023
-23.3004
-23.3031
-23.3054
-23.3044
-23.3061
-23.3077
-23.3093
-23.3074
-23.3093
-23.3115
-23.3092
-23.3126
-23.3172
-23.2927
-23.297
-23.2993
-23.2997
-30.5143
-30.6543
-30.9598
-31.5
-32.4292
-34.1291
-37.7352
-46.4537
-11.3755
-21.1223
-27.8597
-16.1623
-20.8337
-24.1406
-19.3598
-21.6594
-23.404
-20.7022
-21.875
-22.5449
-23.1377
-22.3084
-22.7728
-23.1296
-22.7189
-22.9757
-23.1727
-22.9591
-23.0952
-23.1873
-23.2857
-23.1084
-23.1933
-23.2571
-23.1867
-23.2322
-23.2674
-23.2314
-23.2572
-23.2781
-23.2522
-23.2669
-23.2759
-23.2839
-23.2763
-23.2825
-23.2873
-23.2837
-23.2872
-23.29
-23.2881
-23.2903
-23.292
-23.2941
-23.2911
-23.2936
-23.2966
-23.2927
-23.2975
-23.3067
-23.2718
-23.2801
-23.2834
-23.2838
-30.516
-30.6577
-30.9673
-31.5164
-32.4692
-34.2518
-38.3645
-54.0606
-3.81978
-20.7276
-30.6197
-13.2441
-20.6697
-25.3302
-18.0808
-21.5889
-24.0604
-19.9819
-21.801
-22.5346
-23.3459
-22.0639
-22.747
-23.2292
-22.5835
-22.9548
-23.2184
-22.8796
-23.0749
-23.1745
-23.3157
-23.0475
-23.1759
-23.2618
-23.1505
-23.216
-23.2628
-23.2051
-23.2415
-23.2699
-23.2296
-23.251
-23.2608
-23.2711
-23.2586
-23.2671
-23.2733
-23.2672
-23.2719
-23.2755
-23.2722
-23.275
-23.2768
-23.2798
-23.275
-23.2784
-23.2827
-23.2764
-23.2827
-23.2989
-23.2492
-23.264
-23.2682
-23.2687
)
;

boundaryField
{
    left
    {
        type            calculated;
        value           nonuniform List<scalar> 
32
(
-27.4726
-27.4952
-27.5385
-27.6001
-27.6783
-27.7716
-27.8784
-27.9974
-28.1273
-28.2664
-28.4133
-28.5663
-28.7236
-28.8835
-29.0439
-29.2029
-29.3586
-29.5091
-29.6526
-29.7877
-29.9128
-30.027
-30.1293
-30.2193
-30.2967
-30.3616
-30.4143
-30.4552
-30.4849
-30.5043
-30.5143
-30.516
)
;
    }
    right
    {
        type            calculated;
        value           nonuniform List<scalar> 
32
(
-23.8011
-23.7977
-23.7912
-23.782
-23.7706
-23.7572
-23.7422
-23.7257
-23.7081
-23.6896
-23.6703
-23.6505
-23.6302
-23.6097
-23.5891
-23.5683
-23.5475
-23.5268
-23.5062
-23.4856
-23.4653
-23.4453
-23.4256
-23.4063
-23.3876
-23.3693
-23.3514
-23.3338
-23.3165
-23.2997
-23.2838
-23.2687
)
;
    }
    interface
    {
        type            calculated;
        value           nonuniform List<scalar> 
64
(
-30.5149
-30.657
-30.9676
-31.5188
-32.4774
-34.2817
-38.5683
-58.5087
0.619252
-20.5966
-32.2745
-11.5439
-20.6154
-26.0453
-17.337
-21.5644
-24.4546
-19.5647
-21.7746
-22.5299
-23.471
-21.9226
-22.7362
-23.2904
-22.5059
-22.9455
-23.2474
-22.8347
-23.0657
-23.1679
-23.3347
-23.0132
-23.1676
-23.2662
-23.1307
-23.2081
-23.2616
-23.191
-23.2338
-23.2666
-23.2177
-23.2432
-23.2532
-23.265
-23.2495
-23.2595
-23.2664
-23.2588
-23.2643
-23.2683
-23.2641
-23.2674
-23.2693
-23.2727
-23.2668
-23.2709
-23.2758
-23.2681
-23.2753
-23.2956
-23.2373
-23.2561
-23.2606
-23.2612
)
;
    }
    bottom
    {
        type            calculated;
        value           nonuniform List<scalar> 
64
(
-27.4667
-27.4366
-27.377
-27.289
-27.1744
-27.0355
-26.8755
-26.698
-26.5071
-26.3073
-26.1029
-25.8984
-25.6974
-25.5034
-25.3191
-25.1464
-24.9866
-24.8404
-24.7081
-24.5893
-24.4836
-24.3902
-24.3081
-24.2364
-24.1741
-24.1201
-24.0735
-24.0334
-23.999
-23.9695
-23.9443
-23.9228
-23.9045
-23.8888
-23.8756
-23.8643
-23.8547
-23.8466
-23.8397
-23.8339
-23.829
-23.8248
-23.8213
-23.8183
-23.8158
-23.8136
-23.8119
-23.8103
-23.809
-23.8079
-23.807
-23.8062
-23.8055
-23.8049
-23.8043
-23.8039
-23.8034
-23.8031
-23.8028
-23.8025
-23.8023
-23.8021
-23.802
-23.802
)
;
    }
    defaultFaces
    {
        type            empty;
    }
}


// ************************************************************************* //
