/*--------------------------------*- C++ -*----------------------------------*\
| =========                 |                                                 |
| \\      /  F ield         | OpenFOAM: The Open Source CFD Toolbox           |
|  \\    /   O peration     | Version:  5.x                                   |
|   \\  /    A nd           | Web:      www.OpenFOAM.org                      |
|    \\/     M anipulation  |                                                 |
\*---------------------------------------------------------------------------*/
FoamFile
{
    version     2.0;
    format      ascii;
    class       volScalarField;
    location    "0.7";
    object      T;
}
// * * * * * * * * * * * * * * * * * * * * * * * * * * * * * * * * * * * * * //

dimensions      [0 0 0 1 0 0 0];

internalField   nonuniform List<scalar> 
2048
(
9.80267
9.80289
9.80332
9.80395
9.80477
9.80577
9.80692
9.80819
9.80957
9.811
9.81247
9.81394
9.81538
9.81678
9.8181
9.81934
9.82049
9.82154
9.82249
9.82334
9.8241
9.82477
9.82536
9.82588
9.82633
9.82671
9.82705
9.82734
9.82758
9.8278
9.82798
9.82813
9.82826
9.82838
9.82847
9.82855
9.82862
9.82868
9.82873
9.82877
9.82881
9.82884
9.82886
9.82888
9.8289
9.82892
9.82893
9.82894
9.82895
9.82896
9.82896
9.82897
9.82898
9.82898
9.82898
9.82899
9.82899
9.82899
9.82899
9.829
9.829
9.829
9.829
9.829
9.41648
9.41712
9.41839
9.42027
9.42272
9.42569
9.42911
9.43291
9.43699
9.44126
9.44563
9.44999
9.45428
9.45842
9.46235
9.46602
9.46942
9.47253
9.47534
9.47786
9.4801
9.48208
9.48381
9.48533
9.48665
9.48779
9.48877
9.48962
9.49035
9.49097
9.4915
9.49196
9.49234
9.49267
9.49295
9.49319
9.49339
9.49356
9.49371
9.49383
9.49394
9.49402
9.4941
9.49416
9.49421
9.49426
9.4943
9.49433
9.49436
9.49438
9.4944
9.49442
9.49443
9.49444
9.49445
9.49446
9.49447
9.49448
9.49449
9.49449
9.4945
9.4945
9.4945
9.4945
9.04673
9.04779
9.04988
9.05299
9.05703
9.06193
9.06758
9.07386
9.0806
9.08766
9.09487
9.10207
9.10914
9.11594
9.12239
9.12842
9.13398
9.13906
9.14364
9.14775
9.15139
9.15461
9.15743
9.15989
9.16202
9.16387
9.16546
9.16683
9.168
9.16901
9.16987
9.1706
9.17122
9.17175
9.1722
9.17259
9.17291
9.17319
9.17342
9.17362
9.17379
9.17393
9.17405
9.17415
9.17424
9.17431
9.17437
9.17442
9.17446
9.1745
9.17453
9.17456
9.17459
9.17461
9.17462
9.17464
9.17465
9.17467
9.17468
9.17469
9.17469
9.1747
9.1747
9.1747
8.69247
8.69394
8.69685
8.70116
8.70679
8.71362
8.7215
8.73024
8.73965
8.74949
8.75952
8.76954
8.77934
8.78876
8.79767
8.80598
8.81363
8.8206
8.82687
8.83248
8.83745
8.84183
8.84566
8.849
8.85189
8.85439
8.85654
8.85839
8.85997
8.86133
8.86248
8.86347
8.86431
8.86502
8.86563
8.86615
8.86658
8.86696
8.86727
8.86754
8.86776
8.86795
8.86811
8.86825
8.86836
8.86846
8.86854
8.86861
8.86867
8.86872
8.86876
8.8688
8.86883
8.86886
8.86888
8.86891
8.86892
8.86894
8.86896
8.86897
8.86898
8.86899
8.86899
8.86899
8.35283
8.35471
8.35844
8.36396
8.37118
8.37995
8.39007
8.40132
8.41342
8.42606
8.43894
8.45177
8.4643
8.47631
8.48764
8.49817
8.50783
8.51661
8.52449
8.53152
8.53773
8.54319
8.54795
8.5521
8.55568
8.55878
8.56144
8.56372
8.56568
8.56735
8.56877
8.56999
8.57102
8.5719
8.57265
8.57328
8.57382
8.57428
8.57466
8.57499
8.57526
8.5755
8.57569
8.57586
8.576
8.57612
8.57622
8.57631
8.57638
8.57644
8.57649
8.57654
8.57658
8.57661
8.57664
8.57667
8.57669
8.57671
8.57673
8.57675
8.57676
8.57677
8.57678
8.57678
8.02704
8.02933
8.03387
8.04061
8.04943
8.06016
8.07258
8.08638
8.10123
8.11673
8.1325
8.14818
8.16344
8.17803
8.19173
8.20443
8.21604
8.22655
8.23595
8.24431
8.25168
8.25813
8.26376
8.26864
8.27286
8.27649
8.2796
8.28228
8.28456
8.28651
8.28817
8.28959
8.29079
8.29182
8.29269
8.29342
8.29405
8.29458
8.29503
8.29541
8.29573
8.296
8.29623
8.29642
8.29658
8.29672
8.29684
8.29694
8.29702
8.29709
8.29715
8.29721
8.29725
8.29729
8.29733
8.29736
8.29739
8.29741
8.29743
8.29745
8.29747
8.29748
8.29749
8.29749
7.71437
7.71706
7.72242
7.73038
7.74082
7.75356
7.76832
7.78476
7.80244
7.82089
7.83963
7.8582
7.87622
7.89337
7.90943
7.92424
7.93773
7.94988
7.96073
7.97033
7.97876
7.98613
7.99254
7.99808
8.00286
8.00696
8.01048
8.01349
8.01607
8.01826
8.02013
8.02172
8.02307
8.02422
8.02519
8.02602
8.02672
8.02732
8.02782
8.02824
8.0286
8.02891
8.02916
8.02938
8.02956
8.02971
8.02984
8.02995
8.03005
8.03013
8.03019
8.03025
8.0303
8.03035
8.03039
8.03043
8.03046
8.03049
8.03051
8.03053
8.03055
8.03057
8.03058
8.03058
7.41415
7.41725
7.42342
7.43261
7.4447
7.45948
7.47667
7.49583
7.51645
7.53796
7.55975
7.58129
7.6021
7.62182
7.6402
7.65707
7.67237
7.6861
7.69829
7.70904
7.71845
7.72665
7.73375
7.73987
7.74515
7.74967
7.75354
7.75684
7.75966
7.76206
7.7641
7.76584
7.76732
7.76857
7.76964
7.77054
7.7713
7.77195
7.7725
7.77296
7.77335
7.77368
7.77396
7.7742
7.77439
7.77456
7.7747
7.77482
7.77492
7.77501
7.77508
7.77515
7.7752
7.77525
7.7753
7.77534
7.77537
7.7754
7.77543
7.77546
7.77548
7.77549
7.77551
7.77551
7.12579
7.12928
7.13626
7.14667
7.16042
7.1773
7.19699
7.21899
7.2427
7.26739
7.29235
7.31693
7.34058
7.36288
7.38355
7.40243
7.41947
7.43467
7.44812
7.45993
7.47022
7.47915
7.48687
7.49351
7.4992
7.50408
7.50824
7.51179
7.51482
7.51739
7.51958
7.52144
7.52302
7.52436
7.5255
7.52647
7.52728
7.52797
7.52856
7.52905
7.52947
7.52982
7.53012
7.53037
7.53058
7.53075
7.5309
7.53103
7.53114
7.53123
7.53131
7.53138
7.53144
7.53149
7.53154
7.53158
7.53162
7.53165
7.53169
7.53171
7.53174
7.53175
7.53177
7.53177
6.8487
6.85259
6.86035
6.87198
6.8874
6.90643
6.92871
6.95368
6.98062
7.00865
7.03692
7.06464
7.09117
7.11605
7.13898
7.15981
7.1785
7.1951
7.20971
7.22247
7.23355
7.24313
7.25138
7.25846
7.26451
7.26969
7.27409
7.27785
7.28104
7.28375
7.28606
7.28802
7.28968
7.29109
7.29229
7.2933
7.29416
7.29488
7.2955
7.29601
7.29645
7.29682
7.29713
7.29739
7.29761
7.29779
7.29795
7.29808
7.29819
7.29829
7.29837
7.29844
7.29851
7.29856
7.29861
7.29866
7.2987
7.29874
7.29877
7.29881
7.29883
7.29885
7.29887
7.29887
6.58239
6.58664
6.59516
6.60798
6.62508
6.64629
6.67126
6.69936
6.72971
6.76126
6.79298
6.82394
6.8534
6.88087
6.90603
6.92874
6.949
6.96689
6.98256
6.99618
7.00795
7.01809
7.02679
7.03423
7.04058
7.04599
7.0506
7.05451
7.05784
7.06066
7.06305
7.06508
7.06681
7.06827
7.06951
7.07056
7.07145
7.0722
7.07284
7.07337
7.07383
7.07421
7.07453
7.07479
7.07502
7.07521
7.07537
7.07551
7.07562
7.07572
7.07581
7.07588
7.07595
7.076
7.07606
7.0761
7.07615
7.07619
7.07623
7.07626
7.07629
7.07631
7.07633
7.07633
6.32638
6.33097
6.34021
6.35418
6.37293
6.39636
6.42411
6.4555
6.48946
6.52475
6.56009
6.5944
6.62684
6.65689
6.68422
6.70874
6.73049
6.74957
6.76619
6.78056
6.79293
6.80354
6.81261
6.82034
6.82693
6.83252
6.83728
6.84131
6.84473
6.84763
6.85009
6.85218
6.85395
6.85545
6.85672
6.8578
6.85871
6.85948
6.86013
6.86067
6.86113
6.86152
6.86185
6.86212
6.86235
6.86255
6.86271
6.86285
6.86297
6.86307
6.86315
6.86323
6.86329
6.86335
6.86341
6.86346
6.86351
6.86355
6.86359
6.86363
6.86366
6.86368
6.8637
6.86371
6.08022
6.08513
6.09503
6.11009
6.13045
6.15611
6.18675
6.2216
6.25943
6.29867
6.33782
6.37559
6.41106
6.44367
6.47313
6.49937
6.52249
6.54266
6.56013
6.57515
6.58802
6.599
6.60836
6.61632
6.62308
6.62882
6.63368
6.63779
6.64127
6.64422
6.64672
6.64884
6.65064
6.65217
6.65346
6.65455
6.65548
6.65626
6.65692
6.65747
6.65794
6.65833
6.65866
6.65894
6.65917
6.65936
6.65953
6.65967
6.65978
6.65988
6.65997
6.66005
6.66011
6.66018
6.66023
6.66028
6.66033
6.66038
6.66042
6.66046
6.6605
6.66052
6.66054
6.66055
5.84352
5.8487
5.85919
5.87526
5.89717
5.92505
5.95866
5.9972
6.03915
6.08262
6.12576
6.16711
6.20565
6.24079
6.2723
6.30017
6.32456
6.34571
6.36391
6.37948
6.39274
6.40403
6.4136
6.42172
6.4286
6.43442
6.43935
6.44351
6.44703
6.45
6.45252
6.45466
6.45647
6.45801
6.45931
6.46041
6.46134
6.46213
6.46279
6.46335
6.46381
6.46421
6.46454
6.46481
6.46505
6.46524
6.4654
6.46554
6.46566
6.46576
6.46585
6.46592
6.46599
6.46605
6.46611
6.46616
6.46621
6.46626
6.46631
6.46635
6.46639
6.46642
6.46644
6.46644
5.61591
5.62131
5.6323
5.64926
5.67262
5.70269
5.73937
5.78181
5.82821
5.8762
5.92356
5.9686
6.01022
6.04785
6.08133
6.11072
6.13626
6.15827
6.1771
6.1931
6.20667
6.21816
6.22789
6.23611
6.24305
6.24892
6.25387
6.25804
6.26157
6.26455
6.26707
6.26921
6.27102
6.27256
6.27386
6.27496
6.27589
6.27668
6.27734
6.27789
6.27836
6.27875
6.27908
6.27935
6.27958
6.27977
6.27994
6.28007
6.28019
6.28029
6.28037
6.28045
6.28052
6.28058
6.28063
6.28069
6.28074
6.28079
6.28084
6.28089
6.28093
6.28096
6.28098
6.28099
5.39706
5.40262
5.414
5.43171
5.45638
5.48857
5.5284
5.575
5.62622
5.67906
5.73084
5.77969
5.8244
5.86445
5.89979
5.93059
5.95717
5.97992
5.99926
6.01559
6.02937
6.04099
6.05079
6.05905
6.06602
6.07189
6.07683
6.081
6.0845
6.08746
6.08997
6.0921
6.0939
6.09543
6.09673
6.09782
6.09874
6.09952
6.10018
6.10073
6.10119
6.10157
6.1019
6.10217
6.10239
6.10258
6.10274
6.10287
6.10299
6.10308
6.10317
6.10324
6.10331
6.10337
6.10343
6.10348
6.10354
6.10359
6.10364
6.10369
6.10374
6.10377
6.1038
6.1038
5.18663
5.19229
5.20395
5.22224
5.24805
5.28225
5.32526
5.37631
5.4328
5.49086
5.54729
5.60003
5.64781
5.69021
5.7273
5.75937
5.78685
5.81024
5.82997
5.84653
5.86042
5.8721
5.88191
5.89016
5.89711
5.90294
5.90785
5.91197
5.91544
5.91837
5.92084
5.92295
5.92473
5.92624
5.92752
5.92861
5.92952
5.93028
5.93093
5.93147
5.93192
5.9323
5.93262
5.93288
5.9331
5.93329
5.93344
5.93358
5.93369
5.93378
5.93386
5.93393
5.934
5.93406
5.93412
5.93417
5.93423
5.93428
5.93434
5.93439
5.93444
5.93448
5.93451
5.93451
4.98436
4.99005
5.00184
5.02051
5.04724
5.08328
5.1295
5.18532
5.24762
5.31131
5.3726
5.42931
5.48012
5.52474
5.56345
5.59666
5.62492
5.64882
5.66884
5.68552
5.69943
5.71109
5.72086
5.72905
5.73593
5.74171
5.74655
5.75061
5.75402
5.75689
5.75932
5.76139
5.76315
5.76464
5.7659
5.76696
5.76786
5.76861
5.76925
5.76978
5.77022
5.77059
5.7709
5.77115
5.77137
5.77155
5.7717
5.77183
5.77193
5.77202
5.7721
5.77217
5.77224
5.77229
5.77235
5.77241
5.77246
5.77252
5.77258
5.77264
5.77269
5.77273
5.77276
5.77277
4.78996
4.79561
4.80738
4.82622
4.85359
4.89123
4.94063
5.00158
5.07036
5.14013
5.20646
5.26722
5.32099
5.36767
5.40788
5.44207
5.47097
5.49528
5.51548
5.53217
5.54601
5.55758
5.56726
5.57535
5.58214
5.58782
5.59257
5.59655
5.59989
5.60269
5.60506
5.60709
5.60882
5.61028
5.61151
5.61256
5.61343
5.61417
5.61478
5.6153
5.61573
5.61609
5.61639
5.61664
5.61685
5.61702
5.61716
5.61729
5.61739
5.61748
5.61755
5.61762
5.61768
5.61774
5.61779
5.61785
5.61791
5.61797
5.61803
5.61809
5.61815
5.6182
5.61823
5.61824
4.60319
4.60872
4.62031
4.63906
4.66676
4.70571
4.75818
4.82465
4.90076
4.97708
5.04859
5.11347
5.17008
5.21865
5.2602
5.29522
5.32461
5.34924
5.36953
5.38611
5.3998
5.41123
5.42075
5.42871
5.43537
5.44094
5.44558
5.44946
5.4527
5.45542
5.45773
5.45971
5.4614
5.46283
5.46404
5.46505
5.4659
5.46662
5.46722
5.46772
5.46814
5.46849
5.46878
5.46901
5.46921
5.46938
5.46952
5.46963
5.46973
5.46982
5.46989
5.46995
5.47001
5.47007
5.47012
5.47018
5.47024
5.4703
5.47036
5.47043
5.47049
5.47055
5.47058
5.47059
4.42381
4.42913
4.44039
4.4588
4.48647
4.52631
4.58166
4.65407
4.73862
4.82197
4.8987
4.96778
5.02707
5.0773
5.12007
5.15575
5.18549
5.21036
5.23062
5.24699
5.26043
5.27167
5.28101
5.28878
5.29531
5.30073
5.30524
5.30902
5.31216
5.31478
5.31701
5.31895
5.32059
5.32198
5.32316
5.32414
5.32497
5.32566
5.32624
5.32673
5.32713
5.32747
5.32774
5.32797
5.32816
5.32832
5.32845
5.32856
5.32866
5.32874
5.32881
5.32887
5.32892
5.32898
5.32903
5.32908
5.32914
5.3292
5.32927
5.32935
5.32941
5.32948
5.32951
5.32953
4.25157
4.25664
4.2674
4.2852
4.31243
4.35266
4.41055
4.48934
4.5838
4.67463
4.75651
4.82989
4.89166
4.94326
4.98714
5.0233
5.05321
5.07829
5.09844
5.11446
5.12757
5.13859
5.1477
5.15526
5.16164
5.1669
5.17126
5.17492
5.17794
5.18045
5.1826
5.18449
5.18609
5.18744
5.18858
5.18953
5.19033
5.191
5.19156
5.19203
5.19242
5.19274
5.193
5.19322
5.1934
5.19355
5.19367
5.19378
5.19387
5.19394
5.19401
5.19407
5.19412
5.19417
5.19422
5.19427
5.19433
5.19439
5.19447
5.19455
5.19462
5.19469
5.19473
5.19475
4.08628
4.09101
4.10113
4.11805
4.1444
4.18443
4.24434
4.32988
4.43628
4.53493
4.62169
4.69958
4.76354
4.81614
4.86109
4.89753
4.92743
4.95271
4.97265
4.9882
5.00088
5.01168
5.02052
5.02784
5.03405
5.03913
5.04333
5.04687
5.04976
5.05214
5.0542
5.05605
5.0576
5.05891
5.06002
5.06094
5.0617
5.06235
5.06288
5.06333
5.06371
5.06402
5.06426
5.06446
5.06464
5.06478
5.0649
5.065
5.06508
5.06515
5.06521
5.06527
5.06532
5.06536
5.06541
5.06547
5.06552
5.06559
5.06566
5.06575
5.06584
5.06591
5.06596
5.06597
3.92771
3.93205
3.94138
3.95716
3.98218
4.02131
4.08249
4.17504
4.29616
4.40279
4.49385
4.57666
4.6424
4.69554
4.74161
4.77809
4.80777
4.83334
4.85296
4.86788
4.88005
4.89063
4.89918
4.90621
4.91227
4.91716
4.92117
4.9246
4.92734
4.92958
4.93155
4.93337
4.93487
4.93612
4.9372
4.93808
4.93881
4.93944
4.93995
4.94037
4.94074
4.94103
4.94126
4.94145
4.94161
4.94174
4.94185
4.94195
4.94203
4.94209
4.94215
4.9422
4.94225
4.94229
4.94234
4.94239
4.94245
4.94251
4.94259
4.94268
4.94278
4.94287
4.94291
4.94293
3.77565
3.77955
3.78798
3.80237
3.8256
3.86303
3.92444
4.024
4.16376
4.27813
4.37254
4.46098
4.52797
4.58105
4.62845
4.66468
4.69386
4.71989
4.73909
4.75321
4.76475
4.77518
4.78339
4.79009
4.79604
4.8007
4.8045
4.80783
4.81043
4.81251
4.81437
4.81617
4.81762
4.81881
4.81987
4.82071
4.8214
4.822
4.82249
4.82289
4.82325
4.82352
4.82373
4.82391
4.82406
4.82419
4.82429
4.82438
4.82445
4.82451
4.82457
4.82461
4.82466
4.8247
4.82475
4.82479
4.82485
4.82491
4.82499
4.82509
4.82521
4.8253
4.82535
4.82537
3.6299
3.63332
3.64075
3.65354
3.67454
3.7094
3.76965
3.87572
4.03965
4.1609
4.25717
4.3525
4.41996
4.47217
4.5214
4.55699
4.58532
4.61215
4.63077
4.64388
4.65469
4.66508
4.67289
4.67921
4.68509
4.68951
4.69306
4.69633
4.69876
4.70066
4.7024
4.70422
4.70561
4.70674
4.70778
4.70857
4.70921
4.70981
4.71026
4.71064
4.71099
4.71125
4.71144
4.7116
4.71175
4.71186
4.71195
4.71204
4.71211
4.71216
4.71221
4.71226
4.71229
4.71233
4.71238
4.71243
4.71248
4.71254
4.71262
4.71273
4.71287
4.71297
4.71302
4.71303
3.49026
3.49317
3.49951
3.51052
3.52888
3.56028
3.61763
3.72886
3.92479
4.05106
4.14698
4.25129
4.31808
4.36839
4.4203
4.45472
4.48172
4.50992
4.52775
4.53961
4.54955
4.5601
4.56744
4.57329
4.57921
4.58333
4.58661
4.58987
4.59211
4.5938
4.59541
4.59729
4.59861
4.59965
4.6007
4.60143
4.60202
4.60261
4.60303
4.60338
4.60373
4.60397
4.60414
4.60428
4.60443
4.60453
4.60462
4.6047
4.60476
4.60481
4.60486
4.60489
4.60493
4.60496
4.60501
4.60505
4.6051
4.60517
4.60524
4.60535
4.60553
4.60564
4.60568
4.60569
3.35652
3.3589
3.3641
3.3732
3.38858
3.41561
3.46793
3.5816
3.82063
3.94853
4.04098
4.1576
4.22205
4.26908
4.3251
4.35758
4.38263
4.41307
4.42979
4.44012
4.44904
4.46004
4.46679
4.47208
4.47818
4.48194
4.48488
4.48821
4.49024
4.49169
4.49315
4.49516
4.49638
4.49732
4.4984
4.49907
4.49959
4.50019
4.50057
4.50088
4.50125
4.50147
4.50161
4.50174
4.50188
4.50197
4.50205
4.50213
4.50218
4.50222
4.50227
4.5023
4.50233
4.50236
4.50241
4.50245
4.50249
4.50256
4.50263
4.50275
4.50297
4.50308
4.50312
4.50313
3.22848
3.23032
3.23435
3.24145
3.25358
3.27543
3.32027
3.43156
3.72929
3.85315
3.93788
4.07192
4.13156
4.17351
4.23587
4.26531
4.28754
4.32154
4.33665
4.34516
4.35283
4.36474
4.37072
4.3753
4.38181
4.38512
4.38764
4.39117
4.39293
4.39411
4.39538
4.39762
4.39871
4.39953
4.40067
4.40126
4.40171
4.40234
4.40267
4.40294
4.40333
4.40352
4.40364
4.40374
4.40389
4.40397
4.40403
4.40411
4.40416
4.4042
4.40424
4.40427
4.40429
4.40432
4.40437
4.4044
4.40444
4.40451
4.40457
4.40469
4.40497
4.40507
4.40511
4.40512
3.10594
3.10724
3.1101
3.11515
3.12385
3.13986
3.17461
3.2755
3.65373
3.76462
3.83601
3.99506
4.04628
4.08079
4.15282
4.17761
4.19587
4.23535
4.24809
4.25448
4.26061
4.27408
4.27902
4.28268
4.28993
4.29264
4.29466
4.29856
4.29999
4.30086
4.3019
4.30449
4.3054
4.30605
4.30733
4.30781
4.30816
4.30885
4.30912
4.30934
4.30978
4.30993
4.31002
4.3101
4.31026
4.31032
4.31037
4.31046
4.31049
4.31052
4.31057
4.31059
4.31061
4.31063
4.31069
4.31071
4.31074
4.31082
4.31087
4.31098
4.31134
4.31143
4.31146
4.31147
2.9887
2.98948
2.99117
2.99417
2.99937
3.00908
3.03125
3.10914
3.59805
3.68245
3.73321
3.92828
3.96581
3.98986
4.07638
4.09421
4.10695
4.15464
4.16386
4.16783
4.17203
4.18797
4.19146
4.19396
4.20241
4.20432
4.20569
4.21021
4.21121
4.21175
4.21247
4.21559
4.21625
4.21669
4.21817
4.21851
4.21875
4.21954
4.21973
4.21988
4.22039
4.2205
4.22056
4.22061
4.22079
4.22083
4.22087
4.22096
4.22099
4.22101
4.22106
4.22108
4.22109
4.2211
4.22116
4.22118
4.2212
4.22129
4.22133
4.22141
4.22188
4.22195
4.22197
4.22198
2.87657
2.87683
2.87739
2.87838
2.8801
2.88334
2.89104
2.92685
3.5677
3.60581
3.62678
3.87337
3.88966
3.89942
4.00721
4.0148
4.01999
4.07969
4.08366
4.08501
4.08671
4.10638
4.10784
4.10883
4.11915
4.11994
4.12048
4.12598
4.12639
4.12657
4.12687
4.13079
4.13106
4.13124
4.13304
4.13318
4.13327
4.13423
4.13431
4.13437
4.135
4.13504
4.13506
4.13508
4.1353
4.13532
4.13533
4.13544
4.13545
4.13546
4.13552
4.13553
4.13553
4.13554
4.13562
4.13562
4.13563
4.13574
4.13575
4.13579
4.13641
4.13644
4.13645
4.13645
)
;

boundaryField
{
    left
    {
        type            zeroGradient;
    }
    right
    {
        type            zeroGradient;
    }
    interface
    {
        type            fixedValue;
        value           nonuniform List<scalar> 
64
(
2.82177
2.82177
2.82177
2.82177
2.82177
2.82177
2.82177
2.82177
3.56882
3.56882
3.56882
3.85264
3.85264
3.85264
3.97607
3.97607
3.97607
4.04455
4.04455
4.04455
4.04455
4.067
4.067
4.067
4.07873
4.07873
4.07873
4.08496
4.08496
4.08496
4.08496
4.08945
4.08945
4.08945
4.09149
4.09149
4.09149
4.09258
4.09258
4.09258
4.0933
4.0933
4.0933
4.0933
4.09354
4.09354
4.09354
4.09367
4.09367
4.09367
4.09374
4.09374
4.09374
4.09374
4.09383
4.09383
4.09383
4.09395
4.09395
4.09395
4.09467
4.09467
4.09467
4.09467
)
;
    }
    bottom
    {
        type            fixedValue;
        value           uniform 10;
    }
    defaultFaces
    {
        type            empty;
    }
}


// ************************************************************************* //
