/*--------------------------------*- C++ -*----------------------------------*\
| =========                 |                                                 |
| \\      /  F ield         | OpenFOAM: The Open Source CFD Toolbox           |
|  \\    /   O peration     | Version:  5.x                                   |
|   \\  /    A nd           | Web:      www.OpenFOAM.org                      |
|    \\/     M anipulation  |                                                 |
\*---------------------------------------------------------------------------*/
FoamFile
{
    version     2.0;
    format      ascii;
    class       volScalarField;
    location    "11";
    object      gradTy;
}
// * * * * * * * * * * * * * * * * * * * * * * * * * * * * * * * * * * * * * //

dimensions      [0 -1 0 1 0 0 0];

internalField   nonuniform List<scalar> 
2048
(
-20.1543
-20.0575
-19.8648
-19.5785
-19.2021
-18.7407
-18.2012
-17.5918
-16.9226
-16.2049
-15.4505
-14.6719
-13.8808
-13.0885
-12.3051
-11.5394
-10.7984
-10.0879
-9.41206
-8.77353
-8.17383
-7.61337
-7.0917
-6.6077
-6.15974
-5.74587
-5.36394
-5.0117
-4.68693
-4.38746
-4.11128
-3.85653
-3.62155
-3.40486
-3.20515
-3.02129
-2.85225
-2.69712
-2.55507
-2.42532
-2.30712
-2.19977
-2.10256
-2.01479
-1.93581
-1.86494
-1.80155
-1.74503
-1.69479
-1.65028
-1.611
-1.57646
-1.54623
-1.51991
-1.49713
-1.47756
-1.46091
-1.44692
-1.43535
-1.42602
-1.41875
-1.41342
-1.40992
-1.40818
-20.2327
-20.135
-19.9405
-19.6513
-19.2708
-18.804
-18.2576
-17.6402
-16.9619
-16.2345
-15.4702
-14.6819
-13.8818
-13.0813
-12.2909
-11.5193
-10.7738
-10.0599
-9.38185
-8.74211
-8.14207
-7.58198
-7.06123
-6.57854
-6.13216
-5.72003
-5.33991
-4.98948
-4.66645
-4.36862
-4.09393
-3.84053
-3.60675
-3.39111
-3.19233
-3.00929
-2.84099
-2.68653
-2.54511
-2.41596
-2.29834
-2.19155
-2.0949
-2.00768
-1.92923
-1.85888
-1.79598
-1.73993
-1.69013
-1.64604
-1.60714
-1.57296
-1.54305
-1.51702
-1.49451
-1.47518
-1.45874
-1.44493
-1.43352
-1.42432
-1.41716
-1.41191
-1.40847
-1.40675
-20.3816
-20.2823
-20.0846
-19.7901
-19.4019
-18.9248
-18.3654
-17.7324
-17.0367
-16.2906
-15.5073
-14.7004
-13.8829
-13.0669
-12.2631
-11.4804
-10.7263
-10.0061
-9.32394
-8.68204
-8.08148
-7.5222
-7.00328
-6.52316
-6.07986
-5.67109
-5.29445
-4.94748
-4.62778
-4.33306
-4.06123
-3.81038
-3.57884
-3.36518
-3.16814
-2.98664
-2.81972
-2.66653
-2.52629
-2.39826
-2.28174
-2.17602
-2.08041
-1.99423
-1.91679
-1.84742
-1.78546
-1.7303
-1.68134
-1.63803
-1.59986
-1.56635
-1.53705
-1.51158
-1.48956
-1.47068
-1.45464
-1.44118
-1.43007
-1.42113
-1.41417
-1.40908
-1.40573
-1.40407
-20.5927
-20.4914
-20.2893
-19.9876
-19.5888
-19.0972
-18.5192
-17.864
-17.1432
-16.37
-15.5592
-14.7255
-13.883
-13.0447
-12.2218
-11.4235
-10.6573
-9.92845
-9.2407
-8.59601
-7.99498
-7.43711
-6.92101
-6.44473
-6.00593
-5.60204
-5.23042
-4.88843
-4.57349
-4.28321
-4.01541
-3.76815
-3.53978
-3.32887
-3.13425
-2.95488
-2.78987
-2.63844
-2.49983
-2.37337
-2.25837
-2.15415
-2.06002
-1.9753
-1.89929
-1.83131
-1.77068
-1.71678
-1.66901
-1.6268
-1.58966
-1.55708
-1.52865
-1.50396
-1.48265
-1.46439
-1.44891
-1.43594
-1.42526
-1.41667
-1.41
-1.40512
-1.40192
-1.40033
-20.8587
-20.7551
-20.5481
-20.2379
-19.8263
-19.3166
-18.7152
-18.0315
-17.278
-16.4698
-15.6233
-14.755
-13.8806
-13.0139
-12.1668
-11.3489
-10.5677
-9.82822
-9.13387
-8.48612
-7.88498
-7.3293
-6.81714
-6.34601
-5.91313
-5.51559
-5.15045
-4.81482
-4.50596
-4.2213
-3.95858
-3.71581
-3.49135
-3.28384
-3.09217
-2.9154
-2.75273
-2.60343
-2.46684
-2.3423
-2.22918
-2.12683
-2.03456
-1.95168
-1.87747
-1.81123
-1.75227
-1.69995
-1.65366
-1.61285
-1.57698
-1.54558
-1.51823
-1.49451
-1.47407
-1.4566
-1.44181
-1.42946
-1.4193
-1.41116
-1.40485
-1.40025
-1.39723
-1.39574
-21.173
-21.0672
-20.8551
-20.536
-20.11
-19.5795
-18.9502
-18.2319
-17.4386
-16.5874
-15.6972
-14.7869
-13.8737
-12.973
-12.0973
-11.2565
-10.4578
-9.70633
-9.00479
-8.35409
-7.75349
-7.20105
-6.69408
-6.22947
-5.80393
-5.41415
-5.05687
-4.72893
-4.42735
-4.1494
-3.89267
-3.65514
-3.43521
-3.23159
-3.04329
-2.86948
-2.70946
-2.56259
-2.42829
-2.30597
-2.19503
-2.09485
-2.00477
-1.92406
-1.85198
-1.7878
-1.73081
-1.68035
-1.63581
-1.59661
-1.56225
-1.53223
-1.50613
-1.48355
-1.46413
-1.44758
-1.4336
-1.42195
-1.41242
-1.4048
-1.39892
-1.39464
-1.39184
-1.39045
-21.5295
-21.4219
-21.2054
-20.8775
-20.4365
-19.8831
-19.2219
-18.4632
-17.6227
-16.7205
-15.7786
-14.8188
-13.8607
-12.9209
-12.0125
-11.1458
-10.3279
-9.56337
-8.8545
-8.20137
-7.60228
-7.05435
-6.55398
-6.09734
-5.68058
-5.29995
-4.95185
-4.63283
-4.33966
-4.06939
-3.81946
-3.5878
-3.37287
-3.17351
-2.98886
-2.81825
-2.66111
-2.51689
-2.38508
-2.26519
-2.15667
-2.05893
-1.97131
-1.89306
-1.8234
-1.76157
-1.70682
-1.65846
-1.61589
-1.57852
-1.54584
-1.51737
-1.49268
-1.47137
-1.4531
-1.43756
-1.42449
-1.41364
-1.4048
-1.39777
-1.39237
-1.38846
-1.38592
-1.38465
-21.9224
-21.8139
-21.5942
-21.2587
-20.8032
-20.2255
-19.5289
-18.7239
-17.8286
-16.867
-15.8652
-14.8486
-13.8395
-12.8558
-11.9114
-11.0164
-10.1778
-9.39979
-8.68385
-8.02919
-7.43296
-6.89106
-6.39886
-5.9517
-5.54513
-5.17499
-4.83733
-4.52842
-4.24472
-3.98302
-3.74058
-3.5153
-3.30571
-3.11083
-2.93001
-2.76275
-2.6086
-2.46716
-2.33799
-2.22068
-2.11475
-2.01967
-1.93476
-1.85924
-1.79228
-1.73305
-1.68076
-1.63472
-1.5943
-1.55893
-1.52809
-1.50131
-1.47815
-1.45823
-1.4412
-1.42677
-1.41467
-1.4047
-1.39662
-1.39024
-1.38537
-1.38187
-1.3796
-1.37848
-22.3462
-22.2379
-22.0171
-21.6764
-21.2078
-20.6054
-19.8703
-19.013
-18.0549
-17.0248
-15.9546
-14.8739
-13.8079
-12.7762
-11.7928
-10.8678
-10.0076
-9.21594
-8.4936
-7.83872
-7.24702
-6.71293
-6.2306
-5.79446
-5.39949
-5.04111
-4.7151
-4.4174
-4.14417
-3.89188
-3.65754
-3.43901
-3.23496
-3.04466
-2.86772
-2.70385
-2.55276
-2.41416
-2.2877
-2.17307
-2.06987
-1.97762
-1.89564
-1.82311
-1.75909
-1.70268
-1.65307
-1.60952
-1.57141
-1.53817
-1.50931
-1.48433
-1.46282
-1.44437
-1.42865
-1.41538
-1.40433
-1.39528
-1.38801
-1.38233
-1.37805
-1.375
-1.37304
-1.37206
-22.7954
-22.6889
-22.47
-22.1276
-21.6486
-21.0224
-20.2461
-19.3303
-18.3003
-17.1921
-16.0443
-14.8922
-13.7641
-12.6806
-11.656
-10.6995
-9.81723
-9.01211
-8.28442
-7.63104
-7.04592
-6.52166
-6.05099
-5.62744
-5.24539
-4.89998
-4.58674
-4.30132
-4.03954
-3.79744
-3.57173
-3.36019
-3.16173
-2.97597
-2.80285
-2.64234
-2.49431
-2.35855
-2.23482
-2.1229
-2.02251
-1.93324
-1.85441
-1.7851
-1.72426
-1.67089
-1.62411
-1.5832
-1.54752
-1.51654
-1.48975
-1.46668
-1.44689
-1.42999
-1.41564
-1.40359
-1.39362
-1.38553
-1.37912
-1.37419
-1.37053
-1.36796
-1.36633
-1.36552
-23.2643
-23.1619
-22.9488
-22.6095
-22.1246
-21.4764
-20.6569
-19.6758
-18.5639
-17.3666
-16.1318
-14.9008
-13.7056
-12.5675
-11.4999
-10.5113
-9.60664
-8.78859
-8.05694
-7.40722
-6.83111
-6.31892
-5.86181
-5.45236
-5.08446
-4.75312
-4.45368
-4.18156
-3.93217
-3.70105
-3.4844
-3.27995
-3.08698
-2.9056
-2.73615
-2.5789
-2.43387
-2.30091
-2.17988
-2.07066
-1.9731
-1.88692
-1.81145
-1.74561
-1.68817
-1.63803
-1.59424
-1.55608
-1.52293
-1.49429
-1.46965
-1.44857
-1.43058
-1.41527
-1.40233
-1.39151
-1.38265
-1.37556
-1.37006
-1.36591
-1.36291
-1.36086
-1.35958
-1.35895
-23.7473
-23.6517
-23.4494
-23.1196
-22.635
-21.9685
-21.1043
-20.0504
-18.8448
-17.5462
-16.2141
-14.8972
-13.6305
-12.4356
-11.324
-10.3029
-9.37603
-8.54567
-7.81173
-7.16832
-6.60407
-6.1064
-5.66478
-5.27086
-4.9182
-4.60187
-4.31719
-4.05933
-3.82332
-3.60395
-3.39674
-3.19932
-3.01156
-2.83425
-2.66822
-2.51409
-2.37198
-2.24175
-2.12334
-2.01674
-1.92199
-1.839
-1.76711
-1.70499
-1.65118
-1.60444
-1.56377
-1.52843
-1.49788
-1.47163
-1.44922
-1.43019
-1.41406
-1.40039
-1.38885
-1.37928
-1.37154
-1.36548
-1.3609
-1.35759
-1.35529
-1.35378
-1.35288
-1.35244
-24.2389
-24.1531
-23.9675
-23.6552
-23.1792
-22.5
-21.5906
-20.4554
-19.1422
-17.7284
-16.2883
-14.8781
-13.5366
-12.2837
-11.128
-10.0745
-9.12569
-8.28361
-7.54928
-6.91539
-6.36636
-5.88584
-5.46159
-5.08451
-4.74797
-4.44744
-4.17836
-3.93567
-3.71405
-3.50731
-3.30987
-3.11921
-2.9362
-2.76252
-2.59958
-2.44839
-2.30911
-2.18151
-2.06562
-1.96152
-1.86947
-1.78974
-1.72167
-1.66356
-1.61361
-1.57042
-1.53296
-1.5005
-1.47258
-1.44877
-1.42862
-1.4117
-1.39748
-1.38547
-1.37535
-1.36701
-1.36039
-1.35536
-1.35174
-1.34929
-1.34773
-1.3468
-1.34631
-1.34607
-24.7334
-24.6609
-24.4989
-24.2137
-23.7569
-23.0732
-22.1192
-20.893
-19.4549
-17.9102
-16.3509
-14.8407
-13.4219
-12.1111
-10.9116
-9.8265
-8.85617
-8.00257
-7.26995
-6.64954
-6.11968
-5.65898
-5.25394
-4.89484
-4.57498
-4.29086
-4.03813
-3.81146
-3.60534
-3.41225
-3.22484
-3.04042
-2.86148
-2.69089
-2.53061
-2.38219
-2.24567
-2.12058
-2.00708
-1.90529
-1.81576
-1.73934
-1.67538
-1.62164
-1.57576
-1.53627
-1.50208
-1.4725
-1.44721
-1.42585
-1.408
-1.39324
-1.38099
-1.37065
-1.36191
-1.35477
-1.34925
-1.34526
-1.34263
-1.34108
-1.3403
-1.34
-1.33992
-1.3399
-25.2252
-25.1697
-25.0389
-24.7922
-24.368
-23.691
-22.695
-21.366
-19.7816
-18.0878
-16.3982
-14.7813
-13.2843
-11.9173
-10.6751
-9.55972
-8.56827
-7.7026
-6.97386
-6.3719
-5.86587
-5.42763
-5.04346
-4.70329
-4.4003
-4.133
-3.89728
-3.68735
-3.49799
-3.31986
-3.14274
-2.96365
-2.78786
-2.61972
-2.46159
-2.31579
-2.18205
-2.05932
-1.94806
-1.84835
-1.761
-1.68792
-1.62848
-1.57949
-1.53791
-1.50222
-1.47134
-1.44459
-1.42192
-1.40302
-1.38747
-1.37491
-1.36471
-1.35606
-1.34863
-1.34262
-1.33818
-1.33524
-1.33362
-1.33301
-1.33306
-1.33341
-1.33378
-1.33398
-25.7086
-25.6741
-25.5828
-25.3874
-25.0121
-24.357
-23.324
-21.8784
-20.1199
-18.2569
-16.4263
-14.6963
-13.122
-11.7026
-10.4189
-9.27533
-8.26322
-7.38343
-6.6608
-6.08373
-5.6071
-5.19359
-4.83177
-4.5113
-4.22481
-3.97456
-3.75648
-3.5638
-3.39268
-3.23123
-3.06466
-2.88944
-2.71564
-2.54929
-2.39267
-2.24945
-2.1186
-1.99802
-1.88888
-1.79097
-1.70526
-1.63552
-1.58114
-1.53743
-1.50031
-1.46851
-1.44095
-1.41694
-1.39683
-1.38039
-1.36711
-1.35683
-1.34875
-1.3418
-1.33558
-1.33063
-1.32723
-1.32533
-1.32474
-1.32513
-1.32605
-1.32708
-1.32793
-1.32836
-26.1785
-26.1689
-26.1256
-25.9955
-25.6884
-25.0753
-24.0145
-22.4359
-20.466
-18.4116
-16.4316
-14.5816
-12.9334
-11.4679
-10.1437
-8.97495
-7.9429
-7.0443
-6.33001
-5.78644
-5.34595
-4.95858
-4.62036
-4.32034
-4.04916
-3.81609
-3.61635
-3.441
-3.28987
-3.14756
-2.99183
-2.81816
-2.64498
-2.47982
-2.32387
-2.18332
-2.05569
-1.93693
-1.82984
-1.73345
-1.64851
-1.58209
-1.53357
-1.49578
-1.4632
-1.43534
-1.41112
-1.38964
-1.37204
-1.35806
-1.34699
-1.33904
-1.33324
-1.32799
-1.32282
-1.3188
-1.31642
-1.31556
-1.31603
-1.31746
-1.31931
-1.32106
-1.3224
-1.32308
-26.6299
-26.6488
-26.6618
-26.612
-26.3956
-25.8505
-24.7767
-23.0461
-20.8138
-18.5452
-16.411
-14.4321
-12.7171
-11.2155
-9.84993
-8.66065
-7.61016
-6.68366
-5.98004
-5.48174
-5.08566
-4.72411
-4.41063
-4.13199
-3.87366
-3.65797
-3.4775
-3.31878
-3.1898
-3.07015
-2.92569
-2.7499
-2.57581
-2.41157
-2.25504
-2.11754
-1.99376
-1.87619
-1.77127
-1.67618
-1.59059
-1.52746
-1.48594
-1.4549
-1.42676
-1.4029
-1.38204
-1.36277
-1.3476
-1.33611
-1.32713
-1.3216
-1.31828
-1.31476
-1.31038
-1.30716
-1.30578
-1.30594
-1.3075
-1.31003
-1.31286
-1.31538
-1.31722
-1.31815
-27.0583
-27.1088
-27.1861
-27.2319
-27.1313
-26.6871
-25.6238
-23.7199
-21.1533
-18.6488
-16.3632
-14.2417
-12.4717
-10.9494
-9.53716
-8.33497
-7.26946
-6.29864
-5.60836
-5.17187
-4.83039
-4.49119
-4.20375
-3.94816
-3.69814
-3.50039
-3.34078
-3.19656
-3.09243
-3.00057
-2.86805
-2.68433
-2.50789
-2.3449
-2.18578
-2.05214
-1.93341
-1.81583
-1.71348
-1.61967
-1.53115
-1.47132
-1.4385
-1.41527
-1.39114
-1.37133
-1.35393
-1.33632
-1.32357
-1.31466
-1.30751
-1.30452
-1.30401
-1.30225
-1.29827
-1.29568
-1.29531
-1.29647
-1.29916
-1.30286
-1.30674
-1.31005
-1.31242
-1.3136
-27.4597
-27.5445
-27.6929
-27.8489
-27.8917
-27.5893
-26.5721
-24.4733
-21.4681
-18.7121
-16.2904
-14.0019
-12.1962
-10.6766
-9.20346
-8.0009
-6.92783
-5.88428
-5.21115
-4.85977
-4.58577
-4.25991
-4.00063
-3.77137
-3.52169
-3.3434
-3.20746
-3.0731
-2.99729
-2.9407
-2.82131
-2.62046
-2.44074
-2.28048
-2.11538
-1.98715
-1.87548
-1.7556
-1.65678
-1.56474
-1.46959
-1.41319
-1.39154
-1.3775
-1.35636
-1.34074
-1.32707
-1.31023
-1.29994
-1.29385
-1.28805
-1.28776
-1.29055
-1.29064
-1.28645
-1.28433
-1.28504
-1.28715
-1.29101
-1.29596
-1.30096
-1.30511
-1.30802
-1.30945
-27.8308
-27.9516
-28.1764
-28.4562
-28.6711
-28.5599
-27.6418
-25.3298
-21.7322
-18.7225
-16.2004
-13.7
-11.8896
-10.4084
-8.84366
-7.66181
-6.59638
-5.43235
-4.78287
-4.54953
-4.35947
-4.02875
-3.80185
-3.6053
-3.34224
-3.18689
-3.07966
-2.94625
-2.90345
-2.89286
-2.78881
-2.55624
-2.37359
-2.21958
-2.04251
-1.9225
-1.82128
-1.69483
-1.60154
-1.51264
-1.4049
-1.35236
-1.34547
-1.34243
-1.32227
-1.31118
-1.30184
-1.2843
-1.27671
-1.27389
-1.26861
-1.27127
-1.27808
-1.28017
-1.27483
-1.27304
-1.27501
-1.27797
-1.28304
-1.28936
-1.29556
-1.30057
-1.30401
-1.30569
-28.1691
-28.3266
-28.6314
-29.046
-29.4617
-29.5994
-28.8566
-26.3254
-21.9047
-18.6654
-16.1108
-13.3166
-11.551
-10.163
-8.44706
-7.32137
-6.29255
-4.92952
-4.31606
-4.24673
-4.16219
-3.79349
-3.60756
-3.45551
-3.15587
-3.03058
-2.96096
-2.81253
-2.80929
-2.85995
-2.77535
-2.48804
-2.30546
-2.16445
-1.96502
-1.85808
-1.77287
-1.63219
-1.5481
-1.46537
-1.33546
-1.28792
-1.30087
-1.31121
-1.28843
-1.28268
-1.27884
-1.25813
-1.25383
-1.25514
-1.24893
-1.25492
-1.2668
-1.27117
-1.26323
-1.26172
-1.26527
-1.2689
-1.27523
-1.28305
-1.29054
-1.29644
-1.3004
-1.30233
-28.4727
-28.6668
-29.0527
-29.6102
-30.2531
-30.7047
-30.2434
-27.5146
-21.9223
-18.5248
-16.0545
-12.8209
-11.1795
-9.96884
-7.99386
-6.98351
-6.04346
-4.35463
-3.80121
-3.95889
-4.009
-3.54569
-3.4175
-3.33066
-2.95584
-2.87408
-2.85723
-2.66649
-2.71251
-2.84545
-2.78788
-2.40977
-2.23509
-2.119
-1.87933
-1.79374
-1.73349
-1.56521
-1.4968
-1.42603
-1.25872
-1.21869
-1.25853
-1.2855
-1.25395
-1.25517
-1.25894
-1.23105
-1.23124
-1.23813
-1.22859
-1.23855
-1.25695
-1.2641
-1.25133
-1.25026
-1.25593
-1.25988
-1.26757
-1.27705
-1.28594
-1.29273
-1.2972
-1.29936
-28.7407
-28.97
-29.4359
-30.1401
-31.0323
-31.8674
-31.8306
-28.98
-21.6884
-18.2837
-16.0872
-12.1644
-10.7746
-9.87024
-7.45009
-6.6522
-5.89056
-3.67471
-3.22706
-3.6958
-3.92121
-3.27045
-3.23099
-3.24413
-2.73102
-2.71695
-2.77785
-2.49972
-2.61001
-2.85347
-2.83659
-2.31171
-2.16106
-2.08962
-1.77976
-1.72928
-1.70817
-1.48975
-1.44802
-1.39942
-1.17075
-1.14329
-1.21949
-1.2676
-1.21723
-1.22857
-1.24352
-1.20195
-1.20886
-1.22374
-1.20689
-1.22192
-1.24883
-1.25962
-1.2386
-1.23852
-1.24719
-1.25081
-1.26004
-1.27139
-1.28177
-1.28945
-1.29439
-1.29676
-28.9727
-29.235
-29.7773
-30.6271
-31.7838
-33.0716
-33.6449
-30.8467
-21.0583
-17.926
-16.2983
-11.2714
-10.3362
-9.93413
-6.76037
-6.33146
-5.89616
-2.83925
-2.58156
-3.46959
-3.92894
-2.94338
-3.04711
-3.21639
-2.46383
-2.55877
-2.73732
-2.29958
-2.49801
-2.88852
-2.93639
-2.17883
-2.08193
-2.08641
-1.65741
-1.66455
-1.70457
-1.39911
-1.40208
-1.39279
-1.06556
-1.06028
-1.18509
-1.26079
-1.17568
-1.20276
-1.23469
-1.16904
-1.18661
-1.21328
-1.18281
-1.20476
-1.24274
-1.25866
-1.22425
-1.22636
-1.23935
-1.24156
-1.2526
-1.26606
-1.27806
-1.28659
-1.29196
-1.29453
-29.1694
-29.4614
-30.0741
-31.0634
-32.4902
-34.2929
-35.7049
-33.3015
-19.819
-17.439
-16.8246
-10.0256
-9.86542
-10.2601
-5.83821
-6.02526
-6.1521
-1.77216
-1.85392
-3.2943
-4.07467
-2.5265
-2.86495
-3.27801
-2.12725
-2.39944
-2.75747
-2.04729
-2.37247
-2.955
-3.10898
-1.9886
-1.9965
-2.12477
-1.49868
-1.59947
-1.73417
-1.28295
-1.35933
-1.41684
-0.934126
-0.968356
-1.15689
-1.26968
-1.12522
-1.1776
-1.23557
-1.12962
-1.16446
-1.20874
-1.15475
-1.1868
-1.23904
-1.26256
-1.20702
-1.21368
-1.23287
-1.23185
-1.24524
-1.2611
-1.27484
-1.28416
-1.2899
-1.29264
-29.3316
-29.6495
-30.3248
-31.4422
-33.1331
-35.4961
-38.0119
-36.6195
-17.6621
-16.8175
-17.8683
-8.25299
-9.36613
-10.9931
-4.55307
-5.73766
-6.79113
-0.360932
-1.03823
-3.1846
-4.41799
-1.96284
-2.68416
-3.47377
-1.68087
-2.23947
-2.87017
-1.71538
-2.22977
-3.05634
-3.38567
-1.70798
-1.90419
-2.22742
-1.28327
-1.53423
-1.81374
-1.1257
-1.32009
-1.4871
-0.763167
-0.866838
-1.13657
-1.30071
-1.05975
-1.15304
-1.25076
-1.07959
-1.14243
-1.21299
-1.12039
-1.16784
-1.23802
-1.27321
-1.1851
-1.20044
-1.22842
-1.2213
-1.23798
-1.25652
-1.27213
-1.28214
-1.28818
-1.29106
-29.461
-29.8006
-30.5288
-31.7582
-33.694
-36.6356
-40.5345
-41.1996
-14.1491
-16.0698
-19.7196
-5.69873
-8.84694
-12.3397
-2.71378
-5.4731
-8.00129
1.55793
-0.139375
-3.15312
-5.04182
-1.16962
-2.50572
-3.86771
-1.06577
-2.08061
-3.12086
-1.26429
-2.06812
-3.19339
-3.81108
-1.28962
-1.80563
-2.42701
-0.9816
-1.46951
-1.96729
-0.904713
-1.28477
-1.62562
-0.53339
-0.756315
-1.12563
-1.36284
-0.970401
-1.12918
-1.2868
-1.01301
-1.12071
-1.2301
-1.0763
-1.14785
-1.23986
-1.29325
-1.15584
-1.18673
-1.22695
-1.20929
-1.23085
-1.25236
-1.26998
-1.2805
-1.28675
-1.28977
-29.5597
-29.9164
-30.6869
-32.0083
-34.1565
-37.6559
-43.1881
-47.6101
-8.66751
-15.2263
-22.7837
-1.99855
-8.32454
-14.5881
-0.0479592
-5.23702
-10.0438
4.21756
0.818149
-3.206
-6.06059
-0.0297524
-2.33305
-4.54941
-0.198066
-1.9267
-3.57274
-0.638039
-1.88971
-3.36206
-4.44792
-0.667108
-1.70351
-2.76922
-0.551531
-1.40684
-2.2284
-0.587747
-1.25386
-1.86304
-0.217306
-0.639709
-1.12489
-1.46838
-0.844585
-1.10642
-1.35284
-0.921393
-1.09979
-1.26571
-1.01761
-1.12718
-1.24444
-1.32637
-1.1155
-1.17287
-1.22975
-1.19489
-1.22399
-1.24863
-1.26839
-1.2792
-1.28558
-1.28872
-29.63
-29.9991
-30.8009
-32.1918
-34.5078
-38.4959
-45.8054
-56.6463
-0.376436
-14.3504
-27.6124
3.35634
-7.82836
-18.1321
3.82301
-5.03685
-13.2748
7.94434
1.77766
-3.33583
-7.63044
1.61857
-2.17357
-5.64139
1.03902
-1.78489
-4.31179
0.241349
-1.70389
-3.54982
-5.38311
0.250946
-1.60369
-3.31644
0.0656173
-1.3491
-2.64307
-0.1301
-1.22811
-2.24117
0.223556
-0.523738
-1.13375
-1.63413
-0.664919
-1.08564
-1.46138
-0.792891
-1.08055
-1.32746
-0.937475
-1.10681
-1.25117
-1.37761
-1.05889
-1.15957
-1.2385
-1.17676
-1.21763
-1.24529
-1.26739
-1.27817
-1.2846
-1.28785
-29.6743
-30.0515
-30.8735
-32.31
-34.7408
-39.0955
-48.0983
-69.4009
11.8581
-13.5537
-34.9409
11.0607
-7.4069
-23.4986
9.41329
-4.88352
-18.1703
13.1867
2.63323
-3.51151
-9.96207
3.99406
-2.0407
-7.30772
2.80449
-1.66726
-5.45254
1.4806
-1.53169
-3.73089
-6.73518
1.58788
-1.51668
-4.15202
0.94978
-1.30117
-3.27294
0.52886
-1.20866
-2.81592
0.842048
-0.420908
-1.14904
-1.88269
-0.407878
-1.06843
-1.62912
-0.611342
-1.06454
-1.42546
-0.826476
-1.0887
-1.25865
-1.4538
-0.978945
-1.14802
-1.25534
-1.153
-1.21221
-1.24229
-1.26698
-1.27728
-1.28368
-1.28708
-29.6954
-30.0764
-30.9082
-32.3669
-34.8549
-39.4074
-49.6092
-87.3481
29.5394
-13.0141
-45.7278
22.0429
-7.13592
-31.3784
17.406
-4.79345
-25.3553
20.5496
3.20743
-3.6643
-13.3363
7.38646
-1.9564
-9.76369
5.31035
-1.59304
-7.14458
3.22318
-1.41189
-3.85993
-8.66339
3.50701
-1.45961
-5.38504
2.20738
-1.27102
-4.19919
1.46938
-1.19756
-3.66102
1.7091
-0.352482
-1.16385
-2.24454
-0.0427347
-1.05793
-1.87843
-0.355761
-1.05488
-1.57352
-0.672668
-1.07714
-1.26508
-1.56484
-0.867171
-1.14122
-1.284
-1.12212
-1.20957
-1.24063
-1.26836
-1.27762
-1.28396
-1.28756
)
;

boundaryField
{
    left
    {
        type            calculated;
        value           nonuniform List<scalar> 
32
(
-20.1543
-20.2327
-20.3816
-20.5927
-20.8587
-21.173
-21.5295
-21.9224
-22.3462
-22.7954
-23.2643
-23.7473
-24.2389
-24.7334
-25.2252
-25.7086
-26.1785
-26.6299
-27.0583
-27.4597
-27.8308
-28.1691
-28.4727
-28.7407
-28.9727
-29.1694
-29.3316
-29.461
-29.5597
-29.63
-29.6743
-29.6954
)
;
    }
    right
    {
        type            calculated;
        value           nonuniform List<scalar> 
32
(
-1.40818
-1.40675
-1.40407
-1.40033
-1.39574
-1.39045
-1.38465
-1.37848
-1.37206
-1.36552
-1.35895
-1.35244
-1.34607
-1.3399
-1.33398
-1.32836
-1.32308
-1.31815
-1.3136
-1.30945
-1.30569
-1.30233
-1.29936
-1.29676
-1.29453
-1.29264
-1.29106
-1.28977
-1.28872
-1.28785
-1.28708
-1.28756
)
;
    }
    interface
    {
        type            calculated;
        value           nonuniform List<scalar> 
64
(
-29.7004
-30.0824
-30.9165
-32.3807
-34.8826
-39.4868
-50.0996
-97.8308
39.9553
-12.8356
-52.121
28.4856
-7.04951
-36.0443
22.0999
-4.76672
-29.6087
24.8477
3.39676
-3.72352
-15.324
9.37801
-1.92977
-11.2195
6.77855
-1.56972
-8.14952
4.24081
-1.37127
-3.90435
-9.79429
4.6353
-1.44118
-6.11633
2.94467
-1.26162
-4.74791
2.0214
-1.19444
-4.1616
2.21488
-0.330188
-1.17002
-2.45816
0.171174
-1.05489
-2.02669
-0.20654
-1.05218
-1.66208
-0.583436
-1.07374
-1.26782
-1.63059
-0.802225
-1.13956
-1.30192
-1.10481
-1.20934
-1.2404
-1.26981
-1.27839
-1.28469
-1.28841
)
;
    }
    bottom
    {
        type            calculated;
        value           nonuniform List<scalar> 
64
(
-20.1339
-20.0373
-19.845
-19.5595
-19.1842
-18.7243
-18.1865
-17.5792
-16.9124
-16.1971
-15.4454
-14.6692
-13.8805
-13.0903
-12.3088
-11.5446
-10.8048
-10.0952
-9.4199
-8.78169
-8.18208
-7.62154
-7.09964
-6.61531
-6.16694
-5.75262
-5.37022
-5.01751
-4.69228
-4.39239
-4.11582
-3.86072
-3.62542
-3.40846
-3.20851
-3.02443
-2.8552
-2.69989
-2.55768
-2.42777
-2.30942
-2.20192
-2.10456
-2.01665
-1.93753
-1.86653
-1.80301
-1.74636
-1.69601
-1.65139
-1.61201
-1.57738
-1.54707
-1.52067
-1.49782
-1.47818
-1.46148
-1.44744
-1.43583
-1.42647
-1.41917
-1.41382
-1.4103
-1.40856
)
;
    }
    defaultFaces
    {
        type            empty;
    }
}


// ************************************************************************* //
