/*--------------------------------*- C++ -*----------------------------------*\
| =========                 |                                                 |
| \\      /  F ield         | OpenFOAM: The Open Source CFD Toolbox           |
|  \\    /   O peration     | Version:  5.x                                   |
|   \\  /    A nd           | Web:      www.OpenFOAM.org                      |
|    \\/     M anipulation  |                                                 |
\*---------------------------------------------------------------------------*/
FoamFile
{
    version     2.0;
    format      ascii;
    class       volScalarField;
    location    "11";
    object      gradTx;
}
// * * * * * * * * * * * * * * * * * * * * * * * * * * * * * * * * * * * * * //

dimensions      [0 -1 0 1 0 0 0];

internalField   nonuniform List<scalar> 
2048
(
0.0222186
0.066409
0.109836
0.151923
0.192012
0.229375
0.26325
0.292909
0.317729
0.337259
0.351268
0.359764
0.362976
0.361324
0.35537
0.345765
0.333204
0.318384
0.30197
0.28457
0.266715
0.248849
0.23133
0.214425
0.198329
0.183164
0.168999
0.155855
0.143713
0.132527
0.12223
0.11274
0.103974
0.0958478
0.0882867
0.0812253
0.07461
0.0683989
0.0625607
0.0570734
0.0519221
0.047097
0.0425914
0.0383991
0.0345134
0.0309257
0.0276253
0.0245993
0.021833
0.0193106
0.0170154
0.0149304
0.0130385
0.0113227
0.00976642
0.00835354
0.00706845
0.00589604
0.00482155
0.00383034
0.00290776
0.0020389
0.0012085
0.000400484
0.0658881
0.196954
0.325815
0.450779
0.569895
0.680977
0.781724
0.86992
0.943666
1.00159
1.043
1.06793
1.07708
1.07173
1.05359
1.02462
0.986908
0.942546
0.89352
0.84164
0.788488
0.735379
0.683363
0.63323
0.585541
0.540655
0.498763
0.459919
0.424063
0.391051
0.360675
0.332692
0.306844
0.282884
0.260586
0.239755
0.220233
0.201897
0.184656
0.168446
0.153226
0.138968
0.125653
0.113265
0.101785
0.0911876
0.0814414
0.0725078
0.064343
0.0568998
0.0501287
0.043979
0.0384
0.0333414
0.028754
0.02459
0.0208034
0.0173496
0.0141852
0.011267
0.00855187
0.00599599
0.00355458
0.00117842
0.108185
0.323457
0.535294
0.740987
0.937329
1.12065
1.28702
1.43263
1.55419
1.64936
1.71696
1.75705
1.77091
1.76075
1.72946
1.68039
1.61705
1.54294
1.46136
1.37531
1.28741
1.1998
1.1142
1.03187
0.953699
0.880246
0.8118
0.748425
0.690002
0.636275
0.586883
0.541408
0.499416
0.460485
0.424241
0.390362
0.358591
0.328729
0.300633
0.274202
0.249373
0.226108
0.204381
0.184171
0.165447
0.148171
0.13229
0.117741
0.104449
0.092338
0.081325
0.0713268
0.0622599
0.0540419
0.0465919
0.0398319
0.0336868
0.0280843
0.0229537
0.0182254
0.0138292
0.00969409
0.00574816
0.00190675
0.149393
0.446804
0.739862
1.02497
1.2977
1.55281
1.78457
1.98735
2.15628
2.28788
2.38045
2.43419
2.45102
2.43423
2.38808
2.31736
2.2271
2.12224
2.00745
1.88693
1.7643
1.64254
1.52394
1.4102
1.30249
1.20152
1.10764
1.02089
0.941064
0.867776
0.800489
0.73859
0.681448
0.628462
0.579103
0.532925
0.489578
0.448796
0.410386
0.374225
0.340234
0.308374
0.27862
0.250949
0.225326
0.2017
0.179997
0.160127
0.141987
0.125469
0.110457
0.0968362
0.0844911
0.0733075
0.0631741
0.0539834
0.045633
0.0380242
0.0310616
0.0246507
0.0186962
0.0131011
0.00776846
0.00257786
0.189669
0.567509
0.94051
1.30437
1.65346
1.98084
2.2787
2.53923
2.75565
2.92315
3.03949
3.10506
3.12265
3.09684
3.03342
2.93883
2.81969
2.68249
2.53328
2.3775
2.2198
2.0639
1.91268
1.76818
1.63177
1.50427
1.38603
1.27705
1.17701
1.08536
1.00135
0.924141
0.852891
0.786801
0.72518
0.667465
0.613217
0.562111
0.51392
0.468502
0.425777
0.385713
0.348296
0.313512
0.281327
0.251674
0.22446
0.199567
0.176861
0.1562
0.137437
0.120426
0.105018
0.0910687
0.0784369
0.0669867
0.0565894
0.0471224
0.0384674
0.0305075
0.0231242
0.0161959
0.00960221
0.00318707
0.229049
0.685734
1.13767
1.58009
2.00622
2.40721
2.7728
3.09248
3.3571
3.56024
3.69906
3.77434
3.79
3.75222
3.66858
3.54732
3.39682
3.22517
3.03991
2.84774
2.65432
2.46414
2.28052
2.10581
1.9415
1.78842
1.6469
1.51684
1.3978
1.289
1.18948
1.09813
1.01385
0.935631
0.862612
0.794118
0.729634
0.668786
0.611325
0.5571
0.506043
0.45814
0.413405
0.37184
0.333415
0.298054
0.265639
0.23602
0.20903
0.184492
0.162228
0.142059
0.123806
0.107294
0.0923514
0.0788148
0.0665309
0.055355
0.045149
0.035776
0.0270964
0.018966
0.0112414
0.00373163
0.267453
0.801301
1.33124
1.85237
2.35684
2.83367
3.26958
3.65066
3.96476
4.20349
4.36339
4.44589
4.45644
4.40319
4.29585
4.14467
3.95989
3.75132
3.52804
3.29808
3.06814
2.84339
2.62758
2.42319
2.23174
2.05402
1.89029
1.74033
1.6035
1.47884
1.36507
1.26078
1.16457
1.0752
0.991643
0.913113
0.839037
0.769008
0.702761
0.640151
0.581132
0.525727
0.473992
0.42596
0.381609
0.340852
0.303541
0.269492
0.238498
0.210348
0.18483
0.161735
0.140855
0.121983
0.104917
0.0894659
0.0754539
0.0627169
0.0510997
0.0404486
0.0306058
0.0214051
0.0126822
0.00421013
0.304691
0.913704
1.5206
2.1208
2.70549
3.26128
3.77114
4.21683
4.5823
4.85673
5.0361
5.12287
5.12457
5.05186
4.91689
4.73215
4.50985
4.26158
3.99805
3.72872
3.46134
3.20174
2.95393
2.72042
2.50264
2.30126
2.11639
1.94768
1.79433
1.65511
1.5284
1.41241
1.3054
1.20586
1.1126
1.02475
0.9417
0.863019
0.788442
0.717836
0.651191
0.588587
0.530142
0.475935
0.42596
0.380114
0.338212
0.300025
0.265305
0.233803
0.205275
0.179484
0.156191
0.135159
0.116154
0.0989584
0.0833729
0.0692178
0.0563249
0.0445276
0.0336521
0.0235124
0.0139234
0.0046222
0.340464
1.02213
1.70465
2.38434
3.05168
3.69051
4.27914
4.79371
5.21309
5.52345
5.72033
5.80788
5.7964
5.6997
5.53278
5.31055
5.04724
4.75626
4.45007
4.13965
3.8339
3.53921
3.25969
2.9977
2.75444
2.53037
2.32544
2.13917
1.97057
1.81813
1.67984
1.55344
1.43676
1.32802
1.22588
1.12939
1.03794
0.951106
0.868621
0.790375
0.716403
0.646863
0.581964
0.521856
0.46655
0.415918
0.369728
0.327695
0.289521
0.254921
0.22362
0.195355
0.16986
0.146866
0.126104
0.107327
0.0903158
0.0748788
0.0608393
0.0480221
0.0362408
0.0252906
0.0149664
0.00496818
0.374377
1.12546
1.8818
2.64136
3.39425
4.12126
4.79489
5.38387
5.86038
6.2069
6.41887
6.50297
6.47331
6.3476
6.14411
5.88027
5.57232
5.23547
4.88402
4.53073
4.1857
3.85579
3.54498
3.25528
2.98748
2.74173
2.51782
2.31514
2.13257
1.9683
1.81985
1.68436
1.55917
1.44218
1.33191
1.22742
1.12811
1.03358
0.943583
0.858017
0.776973
0.700715
0.629587
0.56383
0.503478
0.448364
0.398188
0.352597
0.311237
0.273784
0.239939
0.209416
0.181925
0.157161
0.134819
0.114619
0.0963217
0.0797298
0.0646643
0.0509466
0.0383809
0.0267451
0.015814
0.00524898
0.405947
1.22232
2.05002
2.8896
3.73141
4.55291
5.31939
5.9898
6.52744
6.91021
7.13415
7.20972
7.15614
6.99594
6.75103
6.44138
6.08512
5.69913
5.29969
4.90165
4.51653
4.15145
3.80999
3.4935
3.20216
2.93576
2.69392
2.47598
2.28071
2.10606
1.94895
1.80576
1.6732
1.54886
1.43117
1.31925
1.21257
1.11078
1.01363
0.921031
0.833126
0.75032
0.673143
0.601973
0.536859
0.477568
0.423712
0.374849
0.330563
0.290493
0.254321
0.221745
0.192457
0.166115
0.142366
0.120891
0.101438
0.0838072
0.0678262
0.0533189
0.0400842
0.027883
0.0164701
0.00546587
0.434622
1.31111
2.20685
3.12624
4.06069
4.98429
5.85343
6.61415
7.2177
7.63649
7.86832
7.92925
7.84518
7.64456
7.35329
6.99372
6.58554
6.14706
5.69669
5.25199
4.82611
4.4262
4.05497
3.71279
3.39903
3.11301
2.85425
2.62211
2.41541
2.23186
2.06769
1.91825
1.77947
1.64862
1.52415
1.40529
1.29169
1.18304
1.07908
0.979705
0.885104
0.795855
0.712767
0.636403
0.566813
0.503662
0.446436
0.394585
0.347622
0.305157
0.266861
0.232427
0.201536
0.173804
0.148817
0.126209
0.105717
0.0871516
0.0703542
0.0551591
0.0413638
0.0287129
0.0169394
0.00562041
0.459804
1.39007
2.34952
3.34787
4.37893
5.41365
6.39765
7.25979
7.9349
8.38883
8.62323
8.66216
8.54011
8.29285
7.95034
7.53693
7.07345
6.57907
6.07458
5.58118
5.11411
4.68007
4.28025
3.9137
3.57871
3.27407
2.99933
2.754
2.53706
2.34618
2.17668
2.02252
1.87863
1.74206
1.61133
1.48595
1.36582
1.25069
1.14024
1.03434
0.933156
0.837496
0.748583
0.667236
0.593471
0.526786
0.466508
0.41195
0.362548
0.317896
0.277662
0.241552
0.209245
0.180313
0.154254
0.130644
0.109217
0.089806
0.0722789
0.0564879
0.0422337
0.0292437
0.0172272
0.00571436
0.480872
1.45732
2.47495
3.55056
4.68221
5.83858
6.95253
7.93009
8.68329
9.17034
9.40041
9.40853
9.24007
8.93972
8.54133
8.07054
7.54877
6.99504
6.43282
5.88853
5.38018
4.91316
4.48627
4.0969
3.74195
3.41963
3.12975
2.87208
2.64602
2.44944
2.27657
2.11933
1.9714
1.82975
1.69318
1.56159
1.43529
1.31406
1.19745
1.08526
0.977548
0.875412
0.780697
0.69458
0.616966
0.547091
0.484088
0.427102
0.375483
0.328833
0.28683
0.249206
0.215668
0.18573
0.158764
0.134272
0.111997
0.0918148
0.0736312
0.0573262
0.042708
0.029485
0.0173392
0.00574964
0.497217
1.51097
2.57989
3.7299
4.96583
6.25588
7.51842
8.62909
9.46778
9.98413
10.201
10.1679
9.94352
9.58366
9.1252
8.594
8.01156
7.39503
6.77074
6.17314
5.62394
5.12567
4.67357
4.26318
3.88961
3.55043
3.24614
2.97683
2.7426
2.54206
2.36806
2.2095
2.05848
1.9123
1.77017
1.63256
1.50043
1.37346
1.25102
1.13279
1.01856
0.909754
0.809186
0.718534
0.637435
0.564735
0.499348
0.440207
0.386572
0.338093
0.294469
0.255473
0.220883
0.190145
0.162442
0.137172
0.114118
0.0932222
0.0744413
0.0576938
0.0428003
0.0294463
0.0172814
0.00572838
0.508278
1.54924
2.66107
3.88108
5.22426
6.66145
8.09548
9.36184
10.2942
10.8332
11.0257
10.9394
10.6482
10.2228
9.70074
9.10668
8.46218
7.77935
7.08758
6.43385
5.84498
5.31798
4.84282
4.41349
4.02268
3.66727
3.34917
3.06869
2.82699
2.62435
2.45189
2.29395
2.14062
1.99028
1.84272
1.69914
1.56149
1.42919
1.30126
1.1773
1.0565
0.94065
0.834089
0.739185
0.655027
0.579881
0.512469
0.451442
0.395961
0.345806
0.300683
0.260428
0.224963
0.193653
0.165387
0.139424
0.11564
0.0940713
0.0747379
0.0576093
0.0425236
0.0291378
0.0170603
0.00565287
0.513579
1.57051
2.7153
3.99901
5.45105
7.04996
8.68355
10.1348
11.1695
11.72
11.8746
11.7213
11.3512
10.8548
10.2667
9.60785
8.90137
8.14881
7.38234
6.66914
6.04299
5.49067
4.99476
4.5489
4.14228
3.77093
3.43956
3.14816
2.89924
2.69651
2.52891
2.37371
2.21852
2.06425
1.91124
1.76152
1.61873
1.48155
1.34845
1.21918
1.09171
0.968188
0.855385
0.756612
0.669904
0.592697
0.523638
0.46099
0.403792
0.352097
0.305578
0.264135
0.227972
0.196354
0.16771
0.141112
0.116619
0.0944033
0.0745474
0.0570892
0.0418904
0.0285695
0.0166831
0.00552572
0.512763
1.57347
2.73969
4.0785
5.63888
7.41463
9.28197
10.9562
12.1023
12.6463
12.7472
12.512
12.0484
11.4773
10.8219
10.0965
9.33047
8.50485
7.65368
6.87693
6.21773
5.64464
5.13016
4.67063
4.24968
3.86215
3.51809
3.21576
2.9592
2.75858
2.60012
2.44999
2.29283
2.13473
1.97611
1.81981
1.67236
1.53081
1.39281
1.25888
1.12461
0.992406
0.872978
0.770895
0.682257
0.603345
0.533055
0.469047
0.410196
0.357095
0.309259
0.266639
0.229954
0.198352
0.169532
0.142312
0.117108
0.0942576
0.0738935
0.0561475
0.0409119
0.0277522
0.0161577
0.00534982
0.505622
1.55722
2.73181
4.11444
5.77955
7.74678
9.88912
11.8373
13.1032
13.6121
13.6425
13.3094
12.7345
12.0878
11.3654
10.5712
9.75158
8.84994
7.89969
7.05437
6.36926
5.78129
5.24971
4.78005
4.34634
3.94153
3.58564
3.27211
3.00643
2.8103
2.66671
2.5242
2.36406
2.20223
2.03774
1.87395
1.72257
1.57727
1.4345
1.2969
1.1557
1.01326
0.886669
0.782126
0.692313
0.611973
0.540929
0.475824
0.415284
0.360925
0.31184
0.267965
0.230935
0.199764
0.170988
0.1431
0.117154
0.0936721
0.072797
0.0547957
0.039599
0.0266975
0.0154933
0.00512853
0.492121
1.52134
2.68987
4.10211
5.86411
8.03546
10.5018
12.7927
14.1855
14.6149
14.5588
14.1119
13.4024
12.6842
11.8971
11.0293
10.1678
9.18798
8.11759
7.19756
6.49811
5.90264
5.35378
4.87875
4.43398
4.00934
3.64323
3.3181
3.04009
2.85108
2.73022
2.59807
2.43245
2.26723
2.09655
1.92368
1.76959
1.62129
1.47352
1.33387
1.18563
1.03058
0.896119
0.790433
0.700367
0.618689
0.547479
0.481554
0.419131
0.36372
0.313451
0.268105
0.230908
0.200722
0.172238
0.143535
0.116793
0.0926847
0.0712752
0.0530421
0.0379616
0.0254182
0.0147
0.00486565
0.472411
1.46597
2.61292
4.03742
5.88308
8.26689
11.1143
13.842
15.3662
15.6472
15.4941
14.9191
14.0425
13.2649
12.4177
11.4664
10.5838
9.52493
8.30323
7.30114
6.60559
6.01163
5.44214
4.96856
4.51476
4.06534
3.69211
3.35495
3.05882
2.87977
2.79265
2.67379
2.49779
2.3302
2.15312
1.96839
1.81368
1.6633
1.50961
1.37051
1.21529
1.04403
0.900807
0.796019
0.706802
0.623533
0.552947
0.486507
0.421753
0.365619
0.314252
0.26701
0.229827
0.201384
0.17347
0.143658
0.116053
0.0913359
0.0693413
0.0508911
0.0360098
0.0239286
0.0137898
0.00456548
0.446826
1.39181
2.50095
3.91734
5.8268
8.42411
11.7165
15.0119
16.6671
16.6944
16.4468
15.7326
14.641
13.8297
12.9299
11.8749
11.0059
9.86966
8.45038
7.3578
6.69433
6.11248
5.51337
5.05171
4.59139
4.10836
3.73387
3.38451
3.06054
2.89449
2.85674
2.75409
2.55912
2.39174
2.20828
2.00699
1.85524
1.70393
1.5421
1.40779
1.24587
1.05302
0.899979
0.79921
0.712138
0.626414
0.557606
0.491015
0.423072
0.366779
0.314451
0.264575
0.227587
0.201947
0.174914
0.143474
0.114948
0.0896734
0.0670034
0.0483435
0.0337533
0.0222454
0.0127759
0.00423281
0.41587
1.30014
2.35503
3.74016
5.68601
8.48656
12.292
16.338
18.1169
17.7306
17.4168
16.5582
15.1778
14.3811
13.4394
12.2419
11.4434
10.2351
8.54978
7.35773
6.76886
6.21109
5.56412
5.13105
4.66755
4.13577
3.77062
3.40958
3.04222
2.89234
2.92624
2.84255
2.61427
2.45262
2.26327
2.03765
1.89494
1.74413
1.5697
1.44692
1.27903
1.05659
0.89258
0.800532
0.717072
0.627034
0.561783
0.4955
0.422864
0.36739
0.314335
0.26062
0.224015
0.202665
0.176856
0.142934
0.113482
0.0877581
0.064262
0.0453955
0.0312029
0.0203877
0.0116733
0.00387286
0.380195
1.19275
2.1773
3.5059
5.45256
8.4301
12.8145
17.8683
19.7537
18.713
18.4074
17.4081
15.6236
14.9252
13.9562
12.5468
11.9091
10.6397
8.58781
7.28792
6.83654
6.31571
5.58791
5.21043
4.74826
4.14272
3.80529
3.43428
2.99955
2.86905
3.0063
2.94386
2.65932
2.51404
2.32006
2.05738
1.93383
1.78529
1.59012
1.48957
1.31705
1.05324
0.877186
0.800807
0.722553
0.624764
0.565899
0.500527
0.420683
0.367698
0.314305
0.254862
0.218837
0.203871
0.179654
0.141903
0.11165
0.0856729
0.0611063
0.0420385
0.0283706
0.0183778
0.0104984
0.0034911
0.340566
1.07187
1.97097
3.21654
5.12032
8.22736
13.2434
19.6666
21.6283
19.5748
19.428
18.3039
15.935
15.4741
14.4969
12.7568
12.4213
11.1093
8.54466
7.13145
6.90861
6.43763
5.57362
5.2953
4.84061
4.12102
3.84199
3.46464
2.92659
2.81846
3.10397
3.06422
2.68767
2.57793
2.38164
2.06153
1.97367
1.82959
1.59964
1.53795
1.36306
1.04077
0.851928
0.80127
0.729863
0.61848
0.570526
0.506868
0.415761
0.368036
0.314919
0.246882
0.211663
0.206005
0.183764
0.140129
0.109448
0.0835337
0.0575084
0.0382597
0.0252708
0.0162416
0.00926887
0.00309311
0.297821
0.940051
1.74017
2.87619
4.68628
7.8489
13.5175
21.8176
23.8091
20.2145
20.4985
19.2808
16.0484
16.0488
15.0877
12.8218
13.0055
11.6796
8.39208
6.86672
7.00152
6.59222
5.50333
5.39352
4.95454
4.05766
3.8866
3.5092
2.81525
2.73202
3.22882
3.21189
2.68898
2.64739
2.45249
2.04306
2.0172
1.88025
1.59248
1.59517
1.42132
1.01594
0.814417
0.803721
0.740721
0.606342
0.576469
0.515589
0.406863
0.368883
0.316953
0.236081
0.201946
0.209651
0.189767
0.137183
0.106882
0.0815029
0.0534138
0.0340431
0.0219209
0.0140092
0.00800296
0.00268433
0.252827
0.800039
1.48976
2.49113
4.15163
7.26544
13.5469
24.4323
26.3884
20.4834
21.6549
20.3931
15.871
16.6835
15.7681
12.6673
13.6976
12.3983
8.09037
6.4668
7.13847
6.80014
5.34954
5.51654
5.10396
3.93291
3.9475
3.5798
2.65479
2.59809
3.39362
3.39783
2.64768
2.72736
2.53921
1.99147
2.06866
1.94204
1.55995
1.6655
1.4975
0.974173
0.761675
0.810691
0.757418
0.585498
0.584896
0.528163
0.392103
0.370928
0.321461
0.221622
0.188958
0.215581
0.198401
0.1324
0.103993
0.0798045
0.0487289
0.0293718
0.0183425
0.0117149
0.00671925
0.00226982
0.206442
0.654628
1.22511
2.06962
3.52287
6.4514
13.2028
27.6546
29.4905
20.1683
22.9575
21.7204
15.2701
17.4301
16.5954
12.1856
14.5478
13.3288
7.58483
5.8988
7.35108
7.08889
5.07171
5.68103
5.30817
3.71776
4.03665
3.69238
2.43114
2.40111
3.6152
3.63663
2.5411
2.8255
2.65122
1.89162
2.13434
2.02177
1.48942
1.75486
1.59908
0.909105
0.690099
0.825628
0.782979
0.551718
0.597493
0.546603
0.368703
0.37517
0.329848
0.202367
0.171747
0.224795
0.210608
0.12479
0.100888
0.0787413
0.0433034
0.024233
0.0145623
0.00939775
0.00543569
0.0018539
0.159476
0.506535
0.951768
1.62154
2.81253
5.39031
12.3045
31.6687
33.2819
18.9716
24.5009
23.375
14.0589
18.3655
17.6508
11.2244
15.6255
14.5532
6.80138
5.12361
7.68116
7.49477
4.61184
5.91095
5.59347
3.37086
4.17092
3.86783
2.12624
2.12077
3.91527
3.94757
2.33716
2.95325
2.8016
1.72204
2.22341
2.12906
1.363
1.87146
1.73571
0.812065
0.595442
0.853087
0.821369
0.498937
0.616687
0.573631
0.332701
0.383057
0.343947
0.176796
0.149104
0.238579
0.227581
0.112942
0.0977899
0.0787111
0.0369076
0.0186251
0.0106119
0.0071017
0.00416866
0.00143986
0.112664
0.358282
0.675202
1.15782
2.0395
4.08247
10.6038
36.7073
37.984
16.4859
26.4266
25.511
11.9797
19.5994
19.0462
9.57311
17.0262
16.1755
5.64156
4.096
8.18231
8.0652
3.88934
6.24011
5.99509
2.83478
4.37391
4.13285
1.71731
1.73099
4.32134
4.35597
1.99161
3.12732
3.00813
1.45299
2.34887
2.27707
1.15595
2.02652
1.91964
0.671472
0.472862
0.89891
0.877737
0.41871
0.645914
0.612858
0.278586
0.396648
0.366089
0.142918
0.119533
0.258556
0.250823
0.0948916
0.095092
0.0802226
0.0292048
0.0125692
0.00652788
0.00487567
0.00293162
0.00102942
0.0666463
0.212104
0.400489
0.689701
1.22849
2.55495
7.76681
43.0604
43.8884
12.1653
28.9393
28.3334
8.68379
21.2846
20.9321
6.94765
18.879
18.3256
3.97678
2.76514
8.9214
8.86161
2.79495
6.71535
6.55938
2.03161
4.67807
4.52072
1.17608
1.19897
4.86767
4.89482
1.4448
3.37136
3.29442
1.04418
2.52866
2.48349
0.834817
2.23522
2.16609
0.472145
0.317027
0.97038
0.958712
0.299573
0.689954
0.668995
0.198879
0.418835
0.399176
0.0981737
0.0812174
0.286736
0.282216
0.0679868
0.0934444
0.0839071
0.0197181
0.00612454
0.00234976
0.00277377
0.00173341
0.000622059
0.0219534
0.0698928
0.132089
0.22795
0.40842
0.874584
3.35327
51.0841
51.3749
5.29201
32.3247
32.1091
3.7088
23.6284
23.5061
2.97191
21.3565
21.1616
1.6421
1.07596
9.97959
9.96277
1.18383
7.40026
7.34615
0.857978
5.12744
5.07182
0.468136
0.484106
5.59597
5.60669
0.617941
3.71799
3.69104
0.442124
2.78707
2.77152
0.355363
2.51788
2.49362
0.194544
0.122304
1.07632
1.07275
0.12632
0.755327
0.748076
0.083656
0.4536
0.446726
0.0393343
0.0320047
0.325562
0.324099
0.0287196
0.0938498
0.0905254
0.00779298
-0.000591088
-0.00188315
0.000855464
0.000575895
0.000213983
)
;

boundaryField
{
    left
    {
        type            calculated;
        value           uniform 0;
    }
    right
    {
        type            calculated;
        value           uniform 0;
    }
    interface
    {
        type            calculated;
        value           nonuniform List<scalar> 
64
(
0.0219534
0.0698928
0.132089
0.22795
0.40842
0.874584
3.35327
51.0841
51.3749
5.29201
32.3247
32.1091
3.7088
23.6284
23.5061
2.97191
21.3565
21.1616
1.6421
1.07596
9.97959
9.96277
1.18383
7.40026
7.34615
0.857978
5.12744
5.07182
0.468136
0.484106
5.59597
5.60669
0.617941
3.71799
3.69104
0.442124
2.78707
2.77152
0.355363
2.51788
2.49362
0.194544
0.122304
1.07632
1.07275
0.12632
0.755327
0.748076
0.083656
0.4536
0.446726
0.0393343
0.0320047
0.325562
0.324099
0.0287196
0.0938498
0.0905254
0.00779298
-0.000591088
-0.00188315
0.000855464
0.000575895
0.000213983
)
;
    }
    bottom
    {
        type            calculated;
        value           nonuniform List<scalar> 
64
(
0.0222186
0.066409
0.109836
0.151923
0.192012
0.229375
0.26325
0.292909
0.317729
0.337259
0.351268
0.359764
0.362976
0.361324
0.35537
0.345765
0.333204
0.318384
0.30197
0.28457
0.266715
0.248849
0.23133
0.214425
0.198329
0.183164
0.168999
0.155855
0.143713
0.132527
0.12223
0.11274
0.103974
0.0958478
0.0882867
0.0812253
0.07461
0.0683989
0.0625607
0.0570734
0.0519221
0.047097
0.0425914
0.0383991
0.0345134
0.0309257
0.0276253
0.0245993
0.021833
0.0193106
0.0170154
0.0149304
0.0130385
0.0113227
0.00976642
0.00835354
0.00706845
0.00589604
0.00482155
0.00383034
0.00290776
0.0020389
0.0012085
0.000400484
)
;
    }
    defaultFaces
    {
        type            empty;
    }
}


// ************************************************************************* //
