/*--------------------------------*- C++ -*----------------------------------*\
| =========                 |                                                 |
| \\      /  F ield         | OpenFOAM: The Open Source CFD Toolbox           |
|  \\    /   O peration     | Version:  5.x                                   |
|   \\  /    A nd           | Web:      www.OpenFOAM.org                      |
|    \\/     M anipulation  |                                                 |
\*---------------------------------------------------------------------------*/
FoamFile
{
    version     2.0;
    format      ascii;
    class       volScalarField;
    location    "11";
    object      T;
}
// * * * * * * * * * * * * * * * * * * * * * * * * * * * * * * * * * * * * * //

dimensions      [0 0 0 1 0 0 0];

internalField   nonuniform List<scalar> 
2048
(
9.85535
9.85605
9.85743
9.85948
9.86218
9.86548
9.86934
9.87371
9.8785
9.88364
9.88904
9.89461
9.90028
9.90596
9.91157
9.91706
9.92238
9.92747
9.93232
9.93691
9.94122
9.94524
9.94899
9.95247
9.9557
9.95867
9.96142
9.96395
9.96629
9.96844
9.97043
9.97226
9.97395
9.97551
9.97695
9.97827
9.97949
9.9806
9.98162
9.98256
9.98341
9.98418
9.98488
9.98551
9.98608
9.98659
9.98705
9.98745
9.98782
9.98814
9.98842
9.98867
9.98889
9.98908
9.98924
9.98938
9.9895
9.9896
9.98968
9.98975
9.9898
9.98984
9.98987
9.98988
9.57181
9.57387
9.57796
9.58405
9.59205
9.60186
9.61333
9.62629
9.64052
9.65578
9.67182
9.68837
9.70519
9.72203
9.73868
9.75496
9.7707
9.7858
9.80015
9.81372
9.82646
9.83836
9.84944
9.85971
9.86923
9.87801
9.88612
9.8936
9.90049
9.90685
9.91271
9.91812
9.92311
9.92771
9.93195
9.93585
9.93944
9.94274
9.94575
9.94851
9.95102
9.95329
9.95536
9.95722
9.9589
9.9604
9.96175
9.96295
9.96401
9.96496
9.96579
9.96652
9.96717
9.96772
9.96821
9.96862
9.96898
9.96927
9.96952
9.96972
9.96987
9.96998
9.97006
9.97009
9.29911
9.30249
9.30922
9.31922
9.33237
9.34851
9.36739
9.38873
9.41216
9.4373
9.46371
9.49095
9.51861
9.54629
9.57364
9.60034
9.62615
9.65087
9.67437
9.69654
9.71734
9.73677
9.75484
9.77159
9.78708
9.80139
9.81459
9.82676
9.83798
9.84832
9.85786
9.86666
9.87478
9.88227
9.88917
9.89553
9.90137
9.90673
9.91165
9.91613
9.92021
9.92392
9.92728
9.93031
9.93304
9.93548
9.93767
9.93961
9.94134
9.94288
9.94423
9.94542
9.94646
9.94736
9.94815
9.94882
9.94939
9.94987
9.95027
9.95059
9.95084
9.95102
9.95114
9.9512
9.036
9.04067
9.04996
9.06379
9.08199
9.10434
9.13052
9.16011
9.19262
9.22749
9.26412
9.30188
9.34019
9.37848
9.41626
9.4531
9.48867
9.5227
9.55499
9.58543
9.61396
9.64057
9.66529
9.68819
9.70936
9.72889
9.7469
9.76351
9.77881
9.79291
9.80593
9.81793
9.82901
9.83922
9.84865
9.85732
9.8653
9.87262
9.87932
9.88545
9.89102
9.89608
9.90066
9.90479
9.9085
9.91183
9.9148
9.91745
9.91981
9.92189
9.92373
9.92534
9.92675
9.92798
9.92904
9.92995
9.93073
9.93138
9.93192
9.93235
9.93269
9.93294
9.9331
9.93318
8.78144
8.78737
8.79917
8.81676
8.83994
8.86843
8.90184
8.93964
8.98119
9.02575
9.07254
9.12074
9.16957
9.21832
9.26635
9.31311
9.35818
9.40123
9.44201
9.48039
9.51631
9.54976
9.58081
9.60953
9.63606
9.66053
9.68307
9.70384
9.72298
9.74062
9.7569
9.77191
9.78577
9.79857
9.81036
9.82123
9.83122
9.84039
9.84879
9.85645
9.86343
9.86976
9.87548
9.88064
9.88528
9.88943
9.89314
9.89645
9.89938
9.90197
9.90426
9.90627
9.90802
9.90955
9.91087
9.912
9.91296
9.91377
9.91444
9.91497
9.91539
9.91569
9.91589
9.91599
8.53459
8.54174
8.55602
8.5773
8.60539
8.63999
8.68062
8.72664
8.77726
8.83155
8.88852
8.94715
9.00646
9.06558
9.12372
9.18023
9.23458
9.28638
9.33536
9.38137
9.42435
9.46432
9.50136
9.53559
9.56717
9.59626
9.62305
9.64773
9.67045
9.69141
9.71074
9.72858
9.74505
9.76026
9.77429
9.78722
9.79911
9.81002
9.82001
9.82912
9.83742
9.84494
9.85173
9.85786
9.86335
9.86827
9.87267
9.87658
9.88004
9.88311
9.88581
9.88818
9.89025
9.89205
9.8936
9.89493
9.89606
9.89701
9.89779
9.89842
9.89891
9.89927
9.8995
9.89962
8.29474
8.3031
8.31978
8.3447
8.37767
8.41835
8.46622
8.52053
8.58031
8.64443
8.71167
8.78078
8.8506
8.92005
8.9882
9.05429
9.11772
9.17804
9.23495
9.28829
9.33801
9.38417
9.42687
9.46628
9.50259
9.53602
9.56678
9.59509
9.62117
9.6452
9.66738
9.68786
9.70678
9.72426
9.74038
9.75524
9.76892
9.78146
9.79295
9.80343
9.81295
9.82159
9.82938
9.8364
9.84269
9.84832
9.85334
9.85781
9.86177
9.86526
9.86834
9.87104
9.87339
9.87544
9.87721
9.87872
9.88
9.88108
9.88196
9.88267
9.88323
9.88363
9.88389
9.88403
8.06135
8.07087
8.0899
8.11839
8.15618
8.20293
8.25809
8.32078
8.38987
8.46398
8.54164
8.62136
8.70173
8.7815
8.8596
8.93515
9.00748
9.07609
9.14065
9.20102
9.25718
9.30919
9.35723
9.4015
9.44224
9.47971
9.51416
9.54585
9.57502
9.60192
9.62675
9.64968
9.67088
9.69048
9.70857
9.72524
9.74059
9.75467
9.76756
9.77931
9.78999
9.79966
9.80838
9.81623
9.82326
9.82954
9.83514
9.84011
9.84451
9.8484
9.85182
9.85481
9.85743
9.8597
9.86165
9.86332
9.86474
9.86593
9.86691
9.86769
9.8683
9.86874
9.86903
9.86918
7.83395
7.84459
7.86589
7.89786
7.9404
7.99322
8.05573
8.12695
8.20553
8.28985
8.37814
8.46862
8.55964
8.64975
8.73775
8.82265
8.90371
8.98038
9.05234
9.11944
9.1817
9.23925
9.2923
9.34112
9.38598
9.42719
9.46506
9.49986
9.53191
9.56144
9.58872
9.61394
9.63727
9.65884
9.67877
9.69715
9.71406
9.72958
9.74378
9.75673
9.76848
9.77911
9.7887
9.7973
9.805
9.81188
9.818
9.82343
9.82824
9.83248
9.83621
9.83947
9.84231
9.84478
9.8469
9.84872
9.85026
9.85154
9.8526
9.85344
9.8541
9.85458
9.85489
9.85504
7.61219
7.62389
7.64736
7.6827
7.7299
7.78877
7.85869
7.93861
8.02694
8.12174
8.2209
8.32233
8.42412
8.52462
8.62248
8.71663
8.80624
8.89076
8.96985
9.04339
9.11144
9.17419
9.23193
9.28497
9.33366
9.37833
9.41934
9.45701
9.49168
9.52366
9.55319
9.58053
9.60583
9.62925
9.6509
9.67087
9.68926
9.70613
9.72155
9.73561
9.74837
9.75989
9.77026
9.77957
9.78788
9.7953
9.8019
9.80774
9.81291
9.81747
9.82147
9.82497
9.82801
9.83065
9.83293
9.83487
9.83651
9.83788
9.839
9.8399
9.84059
9.8411
9.84143
9.84159
7.3958
7.40849
7.434
7.47255
7.5243
7.58916
7.66658
7.75539
7.85376
7.95937
8.06971
8.18232
8.29501
8.40594
8.51363
8.61691
8.71493
8.80707
8.89302
8.97269
9.0462
9.11383
9.17593
9.23289
9.2851
9.33296
9.37685
9.41715
9.45422
9.48842
9.52004
9.54932
9.57647
9.60161
9.62487
9.64633
9.66609
9.68423
9.70081
9.7159
9.72959
9.74194
9.75304
9.76297
9.77185
9.77975
9.78677
9.79299
9.79849
9.80332
9.80756
9.81127
9.81449
9.81728
9.81968
9.82173
9.82346
9.8249
9.82608
9.82702
9.82775
9.82827
9.82862
9.82879
7.18459
7.19817
7.22556
7.26714
7.32326
7.39403
7.47902
7.57695
7.68571
7.80251
7.92435
8.04839
8.17214
8.29355
8.41103
8.52334
8.62959
8.72914
8.82168
8.90716
8.98581
9.05798
9.12412
9.1847
9.24015
9.29092
9.33743
9.38011
9.41937
9.45559
9.48912
9.52021
9.54906
9.57582
9.60058
9.62345
9.6445
9.66381
9.68147
9.69753
9.71208
9.72519
9.73695
9.74747
9.75684
9.76518
9.77258
9.77913
9.78491
9.78999
9.79445
9.79833
9.80171
9.80463
9.80714
9.80928
9.81109
9.81259
9.81381
9.81478
9.81553
9.81608
9.81643
9.81661
6.97842
6.99278
7.02186
7.06621
7.12648
7.20305
7.29565
7.40298
7.52252
7.65094
7.78467
7.92042
8.05536
8.1873
8.31452
8.43574
8.55005
8.65679
8.75564
8.84662
8.93005
9.00644
9.07631
9.14019
9.19861
9.25203
9.30092
9.34576
9.38699
9.42504
9.4603
9.49306
9.52351
9.55177
9.57795
9.60212
9.62438
9.6448
9.66347
9.68044
9.69579
9.7096
9.72196
9.73299
9.74281
9.75154
9.75927
9.76612
9.77215
9.77745
9.78208
9.78612
9.78963
9.79266
9.79527
9.79748
9.79935
9.8009
9.80215
9.80315
9.80392
9.80447
9.80483
9.80501
6.77719
6.79222
6.82273
6.86956
6.93369
7.01588
7.11615
7.23315
7.36396
7.5045
7.65053
7.79826
7.94455
8.08702
8.22392
8.35393
8.47612
8.58983
8.69472
8.79086
8.87873
8.95899
9.03227
9.09918
9.1603
9.21612
9.26716
9.31392
9.35691
9.39661
9.43346
9.46776
9.49969
9.52936
9.55687
9.58227
9.60567
9.62713
9.64673
9.66455
9.68064
9.6951
9.708
9.71949
9.72971
9.73877
9.7468
9.7539
9.76015
9.76563
9.77043
9.7746
9.77821
9.78134
9.78402
9.7863
9.78821
9.7898
9.79108
9.7921
9.79288
9.79343
9.7938
9.79398
6.58089
6.59642
6.6281
6.67704
6.74466
6.83223
6.94016
7.06718
7.20982
7.36305
7.52182
7.68183
7.83957
7.99256
8.13906
8.27772
8.40762
8.52809
8.63872
8.73967
8.83163
8.91542
8.9918
9.06147
9.12503
9.18302
9.23598
9.28446
9.32901
9.37017
9.40845
9.44417
9.47749
9.5085
9.53725
9.56381
9.58827
9.6107
9.63119
9.6498
9.66659
9.68163
9.69502
9.70691
9.71747
9.72683
9.73512
9.74244
9.74888
9.75452
9.75944
9.76372
9.76743
9.77062
9.77337
9.7757
9.77766
9.77927
9.78057
9.78159
9.78237
9.78293
9.78329
9.78347
6.38949
6.40537
6.4379
6.48853
6.55919
6.65179
6.76736
6.90477
7.05991
7.22647
7.39845
7.57102
7.7403
7.90377
8.05977
8.20692
8.34435
8.47137
8.58745
8.69285
8.78851
8.87551
8.9547
9.02685
9.09262
9.15256
9.20722
9.25722
9.30312
9.34556
9.38513
9.42218
9.45682
9.48908
9.51901
9.54666
9.57211
9.59546
9.61677
9.63612
9.65356
9.66914
9.68296
9.6952
9.70606
9.71567
9.72418
9.73169
9.73829
9.74406
9.74909
9.75346
9.75723
9.76049
9.76328
9.76566
9.76764
9.76927
9.77058
9.77161
9.77238
9.77293
9.77329
9.77347
6.20303
6.21908
6.25211
6.30393
6.37707
6.47427
6.59739
6.74564
6.9141
7.09468
7.28035
7.46576
7.64664
7.82049
7.98585
8.14132
8.28609
8.41949
8.54074
8.65019
8.74916
8.83903
8.92074
8.99512
9.06289
9.12456
9.18073
9.23205
9.27911
9.32265
9.36338
9.40168
9.43756
9.47101
9.50207
9.53074
9.55711
9.58132
9.60341
9.62346
9.64151
9.65758
9.67177
9.68431
9.69541
9.70524
9.71393
9.7216
9.72834
9.73422
9.73934
9.74377
9.7476
9.7509
9.75373
9.75614
9.75814
9.75978
9.76109
9.76211
9.76288
9.76342
9.76377
9.76394
6.02155
6.03757
6.07072
6.12319
6.19817
6.2994
6.42988
6.58946
6.77226
6.96766
7.16746
7.36601
7.55846
7.74252
7.91712
8.08071
8.23264
8.37228
8.49841
8.61146
8.71332
8.80576
8.88971
8.96608
9.03567
9.09889
9.15636
9.20883
9.25686
9.3013
9.34306
9.38255
9.41962
9.45421
9.48633
9.51596
9.5432
9.56822
9.59104
9.61175
9.63038
9.64689
9.66139
9.67417
9.68548
9.69549
9.70434
9.71215
9.719
9.72497
9.73015
9.73463
9.73849
9.74182
9.74469
9.74712
9.74913
9.75077
9.75208
9.75308
9.75383
9.75436
9.7547
9.75487
5.84511
5.86091
5.89377
5.94628
6.02235
6.12689
6.26443
6.43592
6.63435
6.8454
7.05973
7.27173
7.47565
7.66968
7.85339
8.02485
8.18374
8.32959
8.4603
8.57645
8.68075
8.77549
8.86142
8.93954
9.01079
9.07537
9.13396
9.18742
9.23622
9.28137
9.32404
9.3647
9.40292
9.43858
9.47174
9.50226
9.5303
9.55609
9.57959
9.60092
9.62012
9.63703
9.65178
9.66474
9.67623
9.68638
9.69535
9.70328
9.71022
9.71626
9.7215
9.726
9.72987
9.73322
9.73611
9.73856
9.74059
9.74222
9.74351
9.7445
9.74523
9.74574
9.74606
9.74622
5.67377
5.68915
5.72131
5.77321
5.8495
5.95646
6.10061
6.28464
6.50038
6.72794
6.9571
7.1829
7.39809
7.60173
7.79447
7.97351
8.13914
8.29126
8.42626
8.54493
8.65119
8.748
8.83564
8.9153
8.98811
9.05386
9.1134
9.16772
9.21709
9.26272
9.30618
9.34804
9.38737
9.42405
9.45822
9.48957
9.51834
9.54487
9.569
9.59092
9.61069
9.62797
9.64289
9.65597
9.66759
9.67786
9.68693
9.69497
9.70198
9.70806
9.71334
9.71786
9.72172
9.72507
9.72799
9.73046
9.73248
9.73411
9.73538
9.73633
9.73703
9.73752
9.73783
9.73798
5.5076
5.52236
5.55341
5.60402
5.67958
5.78786
5.93792
6.13518
6.37048
6.61538
6.85946
7.09957
7.32568
7.53839
7.74021
7.92645
8.09853
8.25719
8.39618
8.51667
8.62434
8.72309
8.81221
8.89316
8.96748
9.03424
9.09452
9.14962
9.19936
9.24521
9.28935
9.33248
9.37291
9.41054
9.44573
9.47782
9.50724
9.5345
9.55922
9.58168
9.60205
9.61965
9.63467
9.6478
9.65955
9.66989
9.67903
9.68717
9.69424
9.70035
9.70566
9.71017
9.71401
9.71735
9.7203
9.72277
9.72479
9.7264
9.72764
9.72857
9.72923
9.72969
9.72998
9.73012
5.34666
5.36062
5.39015
5.43877
5.51257
5.62086
5.77582
5.987
6.24494
6.50785
6.76664
7.02181
7.25828
7.47934
7.69046
7.8834
8.06155
8.22734
8.36998
8.49141
8.59991
8.70061
8.79093
8.8729
8.94879
9.01638
9.07718
9.13306
9.18294
9.22871
9.2734
9.31798
9.35946
9.39795
9.4342
9.46696
9.49692
9.52494
9.55017
9.57313
9.59416
9.61206
9.62707
9.64019
9.65205
9.66244
9.67162
9.67987
9.68697
9.69309
9.69843
9.70291
9.7067
9.71002
9.71301
9.71549
9.71749
9.71908
9.72029
9.72118
9.7218
9.72223
9.7225
9.72263
5.19099
5.20398
5.23162
5.27758
5.3485
5.45526
5.6137
5.83939
6.12426
6.40554
6.67834
6.94982
7.19579
7.42412
7.6452
7.8441
8.02776
8.20171
8.34761
8.46889
8.57753
8.68042
8.77163
8.8543
8.93198
9.00016
9.06122
9.11799
9.16777
9.21306
9.25815
9.3045
9.34698
9.3862
9.42363
9.45693
9.4873
9.51614
9.54181
9.5652
9.58702
9.60517
9.62004
9.63306
9.64506
9.65547
9.66465
9.67302
9.68014
9.68624
9.69162
9.69606
9.69976
9.70306
9.7061
9.70859
9.71056
9.71214
9.71331
9.71414
9.71473
9.71512
9.71536
9.71548
5.04062
5.0525
5.07789
5.12054
5.18745
5.29094
5.45089
5.69139
6.00928
6.30869
6.59406
6.88392
7.13806
7.37216
7.60448
7.80829
7.99656
8.18045
8.32905
8.44882
8.5568
8.66246
8.75417
8.83708
8.91699
8.98547
9.04645
9.10438
9.15377
9.19812
9.24343
9.29207
9.33543
9.37517
9.41399
9.44767
9.47828
9.5081
9.53407
9.55779
9.58062
9.59895
9.61354
9.62636
9.63856
9.64894
9.65809
9.66663
9.67373
9.67977
9.68522
9.6896
9.69318
9.69644
9.69955
9.70205
9.70399
9.70554
9.70667
9.70745
9.70798
9.70833
9.70855
9.70866
4.89558
4.90622
4.92907
4.96781
5.02959
5.12782
5.28669
5.54168
5.90127
6.21756
6.51299
6.82469
7.08498
7.32266
7.56855
7.77569
7.9672
8.16385
8.31436
8.43087
8.53722
8.64677
8.7384
8.82094
8.90387
8.97221
9.03266
9.09227
9.14093
9.18373
9.229
9.28073
9.32476
9.36472
9.40532
9.43914
9.46974
9.50082
9.52692
9.55081
9.57498
9.59341
9.6075
9.62003
9.63254
9.64284
9.65187
9.66067
9.66771
9.67366
9.67921
9.6835
9.68693
9.69011
9.69336
9.69586
9.69774
9.69928
9.70035
9.70107
9.70155
9.70186
9.70206
9.70215
4.75585
4.76515
4.78522
4.81953
4.8751
4.96598
5.12038
5.3884
5.80218
6.13243
6.43388
6.77301
7.03641
7.27453
7.53794
7.74602
7.93862
8.15244
8.3036
8.41469
8.51819
8.63349
8.72419
8.80547
8.89274
8.9603
9.01954
9.08175
9.12921
9.16973
9.21458
9.27063
9.31495
9.35466
9.39768
9.4313
9.46153
9.49434
9.52029
9.5441
9.57014
9.58852
9.60188
9.61397
9.627
9.63712
9.64595
9.65513
9.66206
9.66785
9.67359
9.67775
9.68097
9.68406
9.68752
9.68999
9.69181
9.69333
9.69435
9.695
9.69542
9.69569
9.69585
9.69594
4.6214
4.6293
4.6464
4.67586
4.72425
4.8056
4.9513
5.22894
5.71481
6.05358
6.35491
6.73029
6.9922
7.22626
7.51356
7.71902
7.90941
8.14707
8.29686
8.39989
8.49894
8.62297
8.71145
8.79014
8.88384
8.94964
9.00674
9.073
9.11861
9.15596
9.1998
9.26201
9.30598
9.34475
9.39121
9.4241
9.45345
9.48875
9.51414
9.5375
9.56618
9.58429
9.59663
9.6081
9.62196
9.63176
9.64026
9.65004
9.65676
9.6623
9.66835
9.67234
9.67528
9.67825
9.68202
9.68445
9.68615
9.6877
9.68865
9.68922
9.68956
9.68979
9.68993
9.69
4.4922
4.49865
4.51266
4.53694
4.57733
4.64703
4.77894
5.05962
5.64315
5.98119
6.27341
6.69862
6.95217
7.17581
7.49686
7.69441
7.87766
8.14903
8.29418
8.38606
8.47852
8.61578
8.70005
8.77427
8.87758
8.94015
8.99376
9.0663
9.10915
9.14227
9.18418
9.25524
9.29783
9.33465
9.38612
9.4175
9.44524
9.4842
9.50842
9.53075
9.56326
9.58072
9.59167
9.60228
9.61747
9.62675
9.63471
9.64542
9.65179
9.65694
9.66351
9.66725
9.66984
9.67262
9.67686
9.6792
9.68076
9.68235
9.68322
9.68371
9.68398
9.68416
9.68427
9.68433
4.36817
4.37316
4.384
4.4029
4.43468
4.49079
4.60312
4.87531
5.59277
5.91537
6.18563
6.68102
6.9161
7.12036
7.49002
7.67195
7.84078
8.16024
8.29557
8.37279
8.45568
8.61282
8.68989
8.75694
8.87461
8.93174
8.97995
9.06208
9.10082
9.12853
9.16709
9.25088
9.29045
9.32391
9.38274
9.41146
9.43656
9.48095
9.50309
9.52354
9.56157
9.57778
9.58695
9.59639
9.61361
9.62206
9.6292
9.64133
9.64713
9.65172
9.6591
9.66247
9.66462
9.66713
9.67208
9.67424
9.67561
9.6773
9.67807
9.67845
9.67865
9.67879
9.67887
9.67892
4.24923
4.25275
4.26043
4.27385
4.29661
4.33759
4.42419
4.66896
5.57129
5.85596
6.08648
6.68179
6.88369
7.05615
7.49617
7.65135
7.79533
8.18342
8.30082
8.35971
8.42882
8.61541
8.68086
8.73695
8.87586
8.9243
8.96445
9.06098
9.0936
9.11465
9.14769
9.24969
9.28382
9.31193
9.38154
9.40593
9.42695
9.47934
9.49811
9.51546
9.56144
9.57545
9.58242
9.59023
9.61051
9.61765
9.6236
9.63784
9.64275
9.64655
9.65514
9.65799
9.65961
9.66172
9.66769
9.66956
9.67065
9.67253
9.67316
9.67344
9.67355
9.67365
9.67371
9.67374
4.13528
4.13736
4.1419
4.14987
4.16346
4.18826
4.2433
4.43098
5.58894
5.80249
5.9691
6.70684
6.85452
6.97821
7.51967
7.63234
7.73678
8.22231
8.30946
8.34658
8.39587
8.62538
8.67279
8.71272
8.88265
8.9177
8.94614
9.06389
9.08741
9.10064
9.12488
9.25275
9.27784
9.2979
9.38319
9.40086
9.41582
9.47988
9.49343
9.50596
9.56328
9.57365
9.57804
9.58356
9.60836
9.61352
9.61772
9.63508
9.63863
9.6413
9.65172
9.65377
9.65479
9.65631
9.66375
9.66513
9.66587
9.66805
9.66849
9.66866
9.66869
9.66874
9.66877
9.66879
4.02619
4.02687
4.02837
4.031
4.03549
4.04376
4.06282
4.14855
5.6592
5.75402
5.82458
6.76416
6.82799
6.88006
7.56637
7.61463
7.65925
8.28202
8.32055
8.33334
8.35417
8.6452
8.66551
8.68219
8.89677
8.91176
8.92358
9.07199
9.08207
9.08662
9.0972
9.26149
9.27241
9.28081
9.3886
9.39615
9.40241
9.48325
9.48902
9.49435
9.56771
9.57228
9.57379
9.5761
9.60742
9.60962
9.61137
9.63323
9.63475
9.63584
9.64892
9.6498
9.65015
9.6508
9.66032
9.66093
9.66122
9.66386
9.66405
9.66411
9.66403
9.66405
9.66406
9.66406
)
;

boundaryField
{
    left
    {
        type            zeroGradient;
    }
    right
    {
        type            zeroGradient;
    }
    interface
    {
        type            fixedValue;
        value           nonuniform List<scalar> 
64
(
3.97284
3.97284
3.97284
3.97284
3.97284
3.97284
3.97284
3.97284
5.73096
5.73096
5.73096
6.81533
6.81533
6.81533
7.60607
7.60607
7.60607
8.32665
8.32665
8.32665
8.32665
8.66204
8.66204
8.66204
8.90894
8.90894
8.90894
9.07961
9.07961
9.07961
9.07961
9.26982
9.26982
9.26982
9.39388
9.39388
9.39388
9.48688
9.48688
9.48688
9.57168
9.57168
9.57168
9.57168
9.60773
9.60773
9.60773
9.63286
9.63286
9.63286
9.64787
9.64787
9.64787
9.64787
9.65888
9.65888
9.65888
9.66188
9.66188
9.66188
9.66175
9.66175
9.66175
9.66175
)
;
    }
    bottom
    {
        type            fixedValue;
        value           uniform 10;
    }
    defaultFaces
    {
        type            empty;
    }
}


// ************************************************************************* //
