/*--------------------------------*- C++ -*----------------------------------*\
| =========                 |                                                 |
| \\      /  F ield         | OpenFOAM: The Open Source CFD Toolbox           |
|  \\    /   O peration     | Version:  5.x                                   |
|   \\  /    A nd           | Web:      www.OpenFOAM.org                      |
|    \\/     M anipulation  |                                                 |
\*---------------------------------------------------------------------------*/
FoamFile
{
    version     2.0;
    format      ascii;
    class       volScalarField;
    location    "6.3";
    object      gradTy;
}
// * * * * * * * * * * * * * * * * * * * * * * * * * * * * * * * * * * * * * //

dimensions      [0 -1 0 1 0 0 0];

internalField   nonuniform List<scalar> 
2048
(
-20.2218
-20.1257
-19.9344
-19.6503
-19.2769
-18.8192
-18.2839
-17.6796
-17.0162
-16.3048
-15.5574
-14.7863
-14.0033
-13.2196
-12.4453
-11.6891
-10.9581
-10.258
-9.5929
-8.96564
-8.37767
-7.82946
-7.32059
-6.84997
-6.41602
-6.01684
-5.65031
-5.31421
-5.00632
-4.72449
-4.46665
-4.23091
-4.01552
-3.81891
-3.63966
-3.47647
-3.32819
-3.19373
-3.0721
-2.96236
-2.8636
-2.77498
-2.69566
-2.62484
-2.56177
-2.5057
-2.45593
-2.41183
-2.37278
-2.33824
-2.30771
-2.28073
-2.25693
-2.23597
-2.21756
-2.20148
-2.18752
-2.17556
-2.16546
-2.15714
-2.15055
-2.14564
-2.14238
-2.14075
-20.2996
-20.2026
-20.0096
-19.7226
-19.345
-18.8819
-18.3398
-17.7274
-17.0549
-16.3339
-15.5766
-14.7959
-14.0039
-13.212
-12.4307
-11.6686
-10.9331
-10.2296
-9.5623
-8.93381
-8.34549
-7.79761
-7.28961
-6.82026
-6.38786
-5.9904
-5.62565
-5.29135
-4.98521
-4.70503
-4.44873
-4.2144
-4.00028
-3.80482
-3.62661
-3.46437
-3.31695
-3.1833
-3.06243
-2.95341
-2.85535
-2.7674
-2.68872
-2.61853
-2.55605
-2.50053
-2.4513
-2.40768
-2.36909
-2.33495
-2.30477
-2.27811
-2.25458
-2.23385
-2.21563
-2.1997
-2.18587
-2.17399
-2.16396
-2.1557
-2.14914
-2.14425
-2.14101
-2.13938
-20.4474
-20.3488
-20.1525
-19.8602
-19.475
-19.0015
-18.4465
-17.8186
-17.1287
-16.3891
-15.6128
-14.8135
-14.0042
-13.1969
-12.4021
-11.629
-10.8848
-10.1751
-9.50367
-8.87297
-8.28407
-7.73694
-7.2307
-6.76386
-6.33446
-5.94029
-5.57899
-5.24812
-4.94532
-4.66829
-4.41492
-4.18325
-3.97154
-3.77825
-3.60198
-3.44152
-3.29574
-3.1636
-3.04417
-2.93651
-2.83976
-2.75307
-2.67562
-2.6066
-2.54524
-2.4908
-2.44256
-2.39987
-2.36212
-2.32874
-2.29925
-2.27318
-2.25017
-2.22986
-2.212
-2.19636
-2.18275
-2.17105
-2.16115
-2.15297
-2.14648
-2.14164
-2.13842
-2.13681
-20.6569
-20.5563
-20.3556
-20.0561
-19.6603
-19.1723
-18.5988
-17.9488
-17.2337
-16.4671
-15.6634
-14.8374
-14.0032
-13.1736
-12.3599
-11.5712
-10.8149
-10.0964
-9.41941
-8.78586
-8.19642
-7.6506
-7.14709
-6.68397
-6.25898
-5.8696
-5.51325
-5.18733
-4.88929
-4.61675
-4.36752
-4.1396
-3.93127
-3.741
-3.56745
-3.40946
-3.26595
-3.13593
-3.01849
-2.91274
-2.81783
-2.73292
-2.6572
-2.58984
-2.53007
-2.47713
-2.43031
-2.38893
-2.35237
-2.32007
-2.29154
-2.26631
-2.24401
-2.22432
-2.20695
-2.1917
-2.1784
-2.16694
-2.15721
-2.14916
-2.14276
-2.13797
-2.13478
-2.13318
-20.9208
-20.818
-20.6124
-20.3044
-19.8957
-19.3898
-18.7928
-18.1143
-17.3668
-16.5652
-15.7259
-14.8654
-13.9993
-13.1414
-12.3036
-11.4954
-10.7241
-9.995
-9.31134
-8.67466
-8.08499
-7.54125
-7.04154
-6.58343
-6.16422
-5.78107
-5.4311
-5.11149
-4.81953
-4.55267
-4.30864
-4.08542
-3.88128
-3.69474
-3.52454
-3.36959
-3.22887
-3.10147
-2.98649
-2.88311
-2.79049
-2.7078
-2.63423
-2.56896
-2.51119
-2.46015
-2.4151
-2.37536
-2.3403
-2.30936
-2.28202
-2.25784
-2.23644
-2.21749
-2.20073
-2.18597
-2.17305
-2.16186
-2.15234
-2.14444
-2.13813
-2.1334
-2.13025
-2.12867
-21.2328
-21.1277
-20.9171
-20.6001
-20.1771
-19.6503
-19.0255
-18.3125
-17.5252
-16.6808
-15.798
-14.8955
-13.9909
-13.0991
-12.2327
-11.4016
-10.6129
-9.87173
-9.18084
-8.54111
-7.95185
-7.41119
-6.9165
-6.46475
-6.05271
-5.67717
-5.33494
-5.02294
-4.73824
-4.47814
-4.24026
-4.02252
-3.82323
-3.641
-3.47465
-3.32318
-3.18567
-3.06126
-2.94914
-2.8485
-2.75854
-2.67846
-2.60742
-2.54461
-2.4892
-2.44039
-2.39744
-2.35963
-2.32634
-2.29698
-2.27105
-2.24809
-2.22773
-2.20964
-2.19359
-2.17938
-2.16688
-2.156
-2.1467
-2.13896
-2.13275
-2.12808
-2.12497
-2.12341
-21.5866
-21.4798
-21.2646
-20.9389
-20.5009
-19.9512
-19.2946
-18.5413
-17.7069
-16.8116
-15.8773
-14.9255
-13.976
-13.0452
-12.1463
-11.2894
-10.4815
-9.72728
-9.02898
-8.38671
-7.79882
-7.26249
-6.7742
-6.33021
-5.92674
-5.56016
-5.22695
-4.92376
-4.64744
-4.39508
-4.16415
-3.95256
-3.75866
-3.58116
-3.41902
-3.27136
-3.13737
-3.01628
-2.90731
-2.80971
-2.72273
-2.64556
-2.57739
-2.51736
-2.46463
-2.41836
-2.37778
-2.34216
-2.31085
-2.28328
-2.25893
-2.23735
-2.21815
-2.20103
-2.18574
-2.17213
-2.16007
-2.14953
-2.14045
-2.13286
-2.12675
-2.12214
-2.11906
-2.11752
-21.9767
-21.8689
-21.6505
-21.3172
-20.8646
-20.2907
-19.5987
-18.7991
-17.9102
-16.9556
-15.9615
-14.9532
-13.9528
-12.9783
-12.0435
-11.1584
-10.3299
-9.56213
-8.85668
-8.21275
-7.62754
-7.09703
-6.61668
-6.18191
-5.7884
-5.43208
-5.10912
-4.81589
-4.54897
-4.30523
-4.08198
-3.87706
-3.68893
-3.51645
-3.35877
-3.21515
-3.08491
-2.96734
-2.86176
-2.76745
-2.68368
-2.6097
-2.54468
-2.48773
-2.43796
-2.3945
-2.35653
-2.32332
-2.2942
-2.26859
-2.24597
-2.22588
-2.20794
-2.19186
-2.17739
-2.1644
-2.15281
-2.14258
-2.13373
-2.12627
-2.12025
-2.11569
-2.11264
-2.1111
-22.3975
-22.2898
-22.0703
-21.7318
-21.266
-20.6674
-19.9369
-19.0852
-18.1335
-17.1107
-16.0484
-14.9762
-13.9193
-12.8969
-11.9232
-11.0081
-10.1581
-9.37666
-8.66473
-8.02043
-7.43955
-6.9166
-6.44585
-6.02183
-5.63963
-5.2948
-4.98325
-4.70105
-4.44451
-4.21021
-3.99523
-3.7974
-3.61529
-3.44799
-3.29489
-3.15544
-3.02909
-2.91521
-2.81317
-2.72232
-2.64198
-2.57141
-2.50979
-2.45619
-2.40963
-2.36921
-2.33407
-2.30345
-2.27668
-2.25317
-2.23241
-2.21392
-2.19733
-2.18233
-2.16871
-2.15635
-2.14521
-2.1353
-2.12664
-2.11931
-2.11335
-2.10883
-2.10579
-2.10426
-22.8434
-22.7376
-22.52
-22.1796
-21.7034
-21.0809
-20.3093
-19.3992
-18.3759
-17.2751
-16.1355
-14.9921
-13.8732
-12.7994
-11.7846
-10.8382
-9.96607
-9.17121
-8.45384
-7.81088
-7.23633
-6.72294
-6.26355
-5.8518
-5.48221
-5.15004
-4.85097
-4.58082
-4.33559
-4.11148
-3.9053
-3.71482
-3.53882
-3.37674
-3.22824
-3.09301
-2.97063
-2.86053
-2.76215
-2.67488
-2.59811
-2.53114
-2.47315
-2.42312
-2.38002
-2.34285
-2.31072
-2.28284
-2.25856
-2.23728
-2.21848
-2.20168
-2.1865
-2.17262
-2.15986
-2.14813
-2.13742
-2.12778
-2.1193
-2.11205
-2.10614
-2.10163
-2.0986
-2.09707
-23.309
-23.2073
-22.9953
-22.658
-22.1758
-21.5313
-20.7165
-19.7413
-18.6362
-17.4466
-16.2202
-14.9983
-13.8126
-12.6843
-11.6267
-10.6483
-9.75391
-8.94612
-8.22468
-7.58518
-7.01938
-6.51775
-6.07159
-5.67359
-5.3178
-4.99934
-4.71374
-4.4566
-4.22357
-4.01039
-3.81345
-3.63044
-3.46052
-3.30354
-3.15956
-3.02853
-2.91013
-2.80387
-2.70921
-2.62559
-2.55249
-2.48928
-2.43512
-2.38891
-2.34948
-2.31574
-2.28677
-2.26178
-2.2401
-2.22114
-2.20438
-2.18935
-2.17562
-2.1629
-2.15099
-2.13985
-2.12954
-2.12015
-2.11179
-2.10459
-2.09869
-2.09418
-2.09114
-2.08961
-23.7888
-23.6937
-23.4924
-23.1644
-22.6823
-22.0194
-21.16
-20.1121
-18.9136
-17.6231
-16.2998
-14.9922
-13.7353
-12.5504
-11.4491
-10.4383
-9.52178
-8.70169
-7.97785
-7.34443
-6.79019
-6.30275
-5.8717
-5.48886
-5.14792
-4.84409
-4.57285
-4.32962
-4.1097
-3.9082
-3.72085
-3.5453
-3.38122
-3.22911
-3.08947
-2.96256
-2.84815
-2.74574
-2.65481
-2.57487
-2.50548
-2.44615
-2.39603
-2.35386
-2.3183
-2.28817
-2.2625
-2.24048
-2.22148
-2.20492
-2.19028
-2.17707
-2.16485
-2.15329
-2.14221
-2.13163
-2.12167
-2.11246
-2.10418
-2.097
-2.09106
-2.08652
-2.08347
-2.08194
-24.277
-24.1916
-24.0069
-23.6962
-23.2225
-22.5469
-21.6422
-20.5133
-19.2074
-17.8021
-16.3711
-14.9706
-13.6391
-12.3966
-11.2513
-10.2083
-9.27001
-8.43821
-7.71387
-7.08971
-6.55036
-6.07967
-5.66561
-5.29921
-4.97397
-4.68551
-4.42943
-4.20095
-3.99508
-3.80605
-3.62861
-3.46029
-3.30166
-3.15405
-3.01848
-2.89557
-2.78513
-2.68655
-2.59936
-2.52307
-2.45739
-2.40203
-2.35615
-2.31826
-2.28677
-2.2604
-2.23812
-2.21914
-2.20288
-2.18878
-2.17632
-2.165
-2.15432
-2.14391
-2.13363
-2.12355
-2.11387
-2.10479
-2.09654
-2.08932
-2.08332
-2.07872
-2.07565
-2.0741
-24.7682
-24.696
-24.5347
-24.2509
-23.7962
-23.1158
-22.1666
-20.9467
-19.5164
-17.9805
-16.4308
-14.9306
-13.5222
-12.222
-11.0332
-9.95886
-8.99915
-8.1559
-7.43313
-6.82215
-6.30157
-5.85031
-5.45503
-5.10618
-4.7972
-4.52468
-4.28445
-4.07148
-3.88067
-3.70505
-3.53778
-3.37622
-3.22242
-3.07883
-2.94699
-2.82796
-2.72148
-2.62671
-2.54321
-2.47051
-2.40844
-2.35713
-2.31573
-2.28238
-2.25515
-2.23264
-2.21383
-2.19794
-2.18446
-2.17286
-2.16262
-2.15323
-2.14414
-2.13488
-2.12533
-2.11568
-2.10622
-2.0972
-2.08892
-2.08161
-2.07549
-2.07081
-2.0677
-2.06615
-25.2566
-25.2014
-25.0711
-24.8255
-24.4031
-23.7292
-22.7379
-21.4155
-19.8393
-18.1548
-16.4752
-14.8688
-13.3824
-12.0263
-10.795
-9.69068
-8.71005
-7.85482
-7.1358
-6.54291
-6.04571
-5.61646
-5.24161
-4.91125
-4.61871
-4.3625
-4.13873
-3.94192
-3.7673
-3.60627
-3.44941
-3.29378
-3.14398
-3.00384
-2.87528
-2.76003
-2.65756
-2.56654
-2.48669
-2.41747
-2.35883
-2.31159
-2.27497
-2.24646
-2.22365
-2.20512
-2.18983
-2.17702
-2.16632
-2.15725
-2.14927
-2.14188
-2.13442
-2.1263
-2.11739
-2.10809
-2.09876
-2.08973
-2.08135
-2.07389
-2.06761
-2.06281
-2.05968
-2.05814
-25.7369
-25.7026
-25.6114
-25.4167
-25.0428
-24.3905
-23.3622
-21.9235
-20.1736
-18.3205
-16.5004
-14.7813
-13.218
-11.8097
-10.5373
-9.40498
-8.40393
-7.53474
-6.82168
-6.25325
-5.78493
-5.37994
-5.02696
-4.71587
-4.43941
-4.19972
-3.99298
-3.81277
-3.65564
-3.51078
-3.36456
-3.21354
-3.06666
-2.92936
-2.80353
-2.69202
-2.5937
-2.50633
-2.4301
-2.36422
-2.30866
-2.26552
-2.23403
-2.21073
-2.19248
-2.178
-2.16625
-2.15648
-2.14855
-2.14204
-2.13634
-2.13101
-2.12526
-2.11825
-2.10987
-2.1008
-2.09154
-2.0824
-2.07388
-2.06622
-2.05969
-2.05476
-2.0516
-2.05009
-26.2038
-26.1941
-26.1506
-26.0209
-25.7147
-25.104
-24.0476
-22.4763
-20.5157
-18.4719
-16.5028
-14.6642
-13.0274
-11.5732
-10.2607
-9.10337
-8.08268
-7.19497
-6.49009
-5.95458
-5.5218
-5.14248
-4.81261
-4.52151
-4.25997
-4.03692
-3.84785
-3.68425
-3.54618
-3.4197
-3.28441
-3.13589
-2.99063
-2.85563
-2.73181
-2.6241
-2.53023
-2.44632
-2.37372
-2.31103
-2.25799
-2.21891
-2.1931
-2.17544
-2.16183
-2.15144
-2.14325
-2.13641
-2.13124
-2.12729
-2.12387
-2.12068
-2.11674
-2.11082
-2.10279
-2.09385
-2.08458
-2.07524
-2.06652
-2.05862
-2.05176
-2.04665
-2.0435
-2.04205
-26.6522
-26.671
-26.6835
-26.6335
-26.4174
-25.8741
-24.8045
-23.0816
-20.8595
-18.602
-16.4794
-14.5125
-12.809
-11.319
-9.96543
-8.78792
-7.74913
-6.83398
-6.13959
-5.64864
-5.25954
-4.90558
-4.59993
-4.32975
-4.08076
-3.87451
-3.704
-3.5563
-3.4392
-3.3343
-3.21032
-3.06096
-2.91587
-2.78289
-2.66003
-2.5564
-2.46754
-2.38668
-2.31781
-2.25823
-2.20675
-2.1717
-2.15231
-2.14086
-2.13186
-2.12558
-2.12096
-2.11687
-2.11441
-2.11306
-2.11187
-2.11093
-2.10896
-2.10411
-2.09619
-2.08725
-2.07791
-2.06826
-2.0593
-2.05112
-2.04381
-2.03849
-2.03541
-2.03407
-27.0778
-27.1281
-27.2045
-27.2495
-27.1485
-26.7055
-25.646
-23.7501
-21.1949
-18.7024
-16.4289
-14.32
-12.5617
-11.0511
-9.65133
-8.46114
-7.40772
-6.449
-5.76776
-5.33762
-5.00227
-4.6703
-4.3901
-4.14248
-3.90167
-3.71272
-3.56228
-3.42842
-3.33468
-3.25602
-3.14399
-2.98853
-2.84219
-2.71147
-2.5879
-2.48897
-2.40611
-2.32745
-2.26264
-2.20624
-2.15476
-2.1237
-2.11184
-2.10731
-2.10267
-2.10053
-2.09953
-2.09786
-2.09809
-2.09939
-2.10033
-2.10176
-2.10201
-2.09822
-2.09003
-2.08099
-2.07158
-2.06143
-2.05224
-2.04377
-2.03583
-2.03026
-2.02733
-2.02618
-27.4767
-27.5611
-27.708
-27.8627
-27.9042
-27.6021
-26.5883
-24.4979
-21.5057
-18.7625
-16.3533
-14.0783
-12.2844
-10.7765
-9.31644
-8.12599
-7.06541
-6.03516
-5.37082
-5.02446
-4.75554
-4.43675
-4.18404
-3.9622
-3.72186
-3.55164
-3.42397
-3.29953
-3.23224
-3.18662
-3.08765
-2.91778
-2.76913
-2.64196
-2.51485
-2.42181
-2.34664
-2.2685
-2.20847
-2.15567
-2.10166
-2.07463
-2.0719
-2.07522
-2.07433
-2.07635
-2.07911
-2.07936
-2.08228
-2.08637
-2.08919
-2.09318
-2.09601
-2.09329
-2.08426
-2.07505
-2.06562
-2.05472
-2.04534
-2.03663
-2.02779
-2.02195
-2.01929
-2.01844
-27.8454
-27.9656
-28.1886
-28.4663
-28.679
-28.5669
-27.6514
-25.3485
-21.7661
-18.7698
-16.2606
-13.7748
-11.9761
-10.5063
-8.95566
-7.78579
-6.73318
-5.58441
-4.94336
-4.71318
-4.52692
-4.20347
-3.98232
-3.79249
-3.53938
-3.39116
-3.29115
-3.16769
-3.13102
-3.12824
-3.04438
-2.84695
-2.69604
-2.57544
-2.43986
-2.35488
-2.29017
-2.2094
-2.15555
-2.10746
-2.04682
-2.02402
-2.03277
-2.04514
-2.04677
-2.05311
-2.05994
-2.06125
-2.06697
-2.07408
-2.07834
-2.08513
-2.0911
-2.08951
-2.07877
-2.0694
-2.06013
-2.04807
-2.03864
-2.02981
-2.01963
-2.01352
-2.01132
-2.0109
-28.1816
-28.3383
-28.6408
-29.0527
-29.465
-29.6004
-28.859
-26.3375
-21.9354
-18.7099
-16.1681
-13.3904
-11.6358
-10.2585
-8.55841
-7.4442
-6.42827
-5.08363
-4.47807
-4.4093
-4.32695
-3.96639
-3.78508
-3.63877
-3.35049
-3.23105
-3.16726
-3.02971
-3.02957
-3.08352
-3.01856
-2.77288
-2.62197
-2.51382
-2.36121
-2.28808
-2.23833
-2.14918
-2.10414
-2.06303
-1.98916
-1.97128
-1.99483
-2.01782
-2.01977
-2.03081
-2.04235
-2.04331
-2.05213
-2.06271
-2.06762
-2.07754
-2.08743
-2.08715
-2.07332
-2.06397
-2.05525
-2.04135
-2.03214
-2.02346
-2.01127
-2.00491
-2.00345
-2.00363
-28.4834
-28.6764
-29.0597
-29.6135
-30.2519
-30.6995
-30.2379
-27.5192
-21.9504
-18.5668
-16.1086
-12.8944
-11.2628
-10.0616
-8.10512
-7.10504
-6.17746
-4.51202
-3.96559
-4.12023
-4.17045
-3.71729
-3.59205
-3.50947
-3.14873
-3.07093
-3.05795
-2.88057
-2.92579
-3.0557
-3.01651
-2.69023
-2.54578
-2.46043
-2.27604
-2.22125
-2.19366
-2.08609
-2.05448
-2.02462
-1.92701
-1.91564
-1.95861
-1.99433
-1.99282
-2.00942
-2.02686
-2.02519
-2.03772
-2.05255
-2.05674
-2.07029
-2.0852
-2.08659
-2.06756
-2.0587
-2.05123
-2.03433
-2.02586
-2.01783
-2.00255
-1.99606
-1.99573
-1.9967
-28.7497
-28.9777
-29.4406
-30.1403
-31.0267
-31.8557
-31.8164
-28.9759
-21.7151
-18.3235
-16.1373
-12.2387
-10.8565
-9.95932
-7.5622
-6.77225
-6.02169
-3.83712
-3.39487
-3.85561
-4.07835
-3.44164
-3.40256
-3.41758
-2.92344
-2.91034
-2.97216
-2.71246
-2.81685
-3.04853
-3.04746
-2.59045
-2.46613
-2.42066
-2.17978
-2.15422
-2.16009
-2.01708
-2.00679
-1.99564
-1.85772
-1.8562
-1.92481
-1.97614
-1.96501
-1.98888
-2.01425
-2.00625
-2.0237
-2.04407
-2.04529
-2.06323
-2.08464
-2.08841
-2.06091
-2.05352
-2.04849
-2.02668
-2.01982
-2.0133
-1.99322
-1.98691
-1.98821
-1.99021
-28.9804
-29.241
-29.78
-30.6245
-31.7741
-33.0535
-33.621
-30.8322
-21.0857
-17.9639
-16.3432
-11.3482
-10.4168
-10.018
-6.8749
-6.44977
-6.02245
-3.00919
-2.75408
-3.6274
-4.08023
-3.11564
-3.21568
-3.38293
-2.65771
-2.74888
-2.92371
-2.51362
-2.69935
-3.06616
-3.12484
-2.46031
-2.38171
-2.40306
-2.06523
-2.08684
-2.14358
-1.93726
-1.96131
-1.98121
-1.7772
-1.79201
-1.89434
-1.96532
-1.93479
-1.96913
-2.00572
-1.98552
-2.01001
-2.038
-2.03264
-2.05615
-2.08599
-2.09347
-2.05249
-2.04836
-2.04765
-2.01783
-2.01404
-2.0104
-1.98289
-1.9774
-1.98097
-1.98423
-29.1758
-29.466
-30.0752
-31.0583
-32.4767
-34.2682
-35.6704
-33.2739
-19.8499
-17.4754
-16.8622
-10.1075
-9.94483
-10.3364
-5.95763
-6.14152
-6.27038
-1.95326
-2.03263
-3.44944
-4.21776
-2.70215
-3.03052
-3.43517
-2.32552
-2.58645
-2.93331
-2.26647
-2.56962
-3.11272
-3.26817
-2.27988
-2.29139
-2.4206
-1.92134
-2.01906
-2.15299
-1.83895
-1.91827
-1.98888
-1.67931
-1.72225
-1.86825
-1.96476
-1.89976
-1.95009
-2.00305
-1.96149
-1.99665
-2.03545
-2.01782
-2.04884
-2.0895
-2.10301
-2.04098
-2.04316
-2.04968
-2.00693
-2.00855
-2.00997
-1.97095
-1.96748
-1.97412
-1.97887
-29.3371
-29.653
-30.3244
-31.435
-33.1161
-35.4652
-37.9656
-36.5749
-17.7011
-16.8529
-17.8952
-8.34382
-9.44449
-11.0582
-4.68124
-5.85154
-6.89643
-0.558449
-1.22475
-3.3362
-4.54936
-2.14551
-2.84676
-3.61767
-1.88797
-2.42354
-3.0312
-1.94525
-2.42449
-3.19144
-3.50548
-2.01992
-2.19468
-2.49239
-1.73156
-1.95109
-2.20125
-1.7106
-1.87793
-2.02955
-1.5549
-1.64652
-1.84771
-1.97845
-1.85625
-1.93172
-2.00884
-1.93186
-1.98362
-2.03801
-1.99947
-2.04106
-2.09532
-2.11881
-2.02441
-2.03786
-2.056
-1.99269
-2.00337
-2.01315
-1.95648
-1.95717
-1.96779
-1.97419
-29.4659
-29.8031
-30.5273
-31.7492
-33.6741
-36.5988
-40.4756
-41.1322
-14.2029
-16.1047
-19.7304
-5.80428
-8.92437
-12.388
-2.85653
-5.58426
-8.08615
1.33641
-0.335328
-3.30018
-5.15629
-1.36475
-2.6654
-3.99242
-1.28825
-2.26192
-3.2604
-1.51276
-2.26253
-3.30332
-3.87666
-1.63848
-2.09229
-2.6458
-1.47165
-1.88366
-2.30676
-1.53526
-1.84068
-2.11864
-1.39064
-1.5653
-1.8338
-2.01187
-1.79889
-1.91408
-2.02679
-1.89329
-1.97101
-2.04797
-1.97557
-2.03267
-2.10342
-2.14343
-1.99999
-2.03247
-2.06862
-1.9732
-1.99855
-2.02157
-1.9381
-1.94656
-1.96212
-1.97025
-29.564
-29.9181
-30.6846
-31.998
-34.1342
-37.6139
-43.1161
-47.5114
-8.74558
-15.2611
-22.7704
-2.1272
-8.40116
-14.6113
-0.213883
-5.3452
-10.0972
3.9612
0.611437
-3.34753
-6.15061
-0.24531
-2.48991
-4.64605
-0.445442
-2.10543
-3.68073
-0.916259
-2.08608
-3.44496
-4.43767
-1.0766
-1.98696
-2.91905
-1.10697
-1.81833
-2.49519
-1.28876
-1.80708
-2.27755
-1.16747
-1.48066
-1.82719
-2.07252
-1.72005
-1.8974
-2.06201
-1.84097
-1.95902
-2.06845
-1.94325
-2.02366
-2.11347
-2.18045
-1.96378
-2.02707
-2.09035
-1.94574
-1.99413
-2.03745
-1.91381
-1.93592
-1.95724
-1.96707
-29.6339
-30.0003
-30.7979
-32.1804
-34.4837
-38.4497
-45.7206
-56.504
-0.492484
-14.3854
-27.5633
3.19262
-7.90428
-18.1181
3.62151
-5.14197
-13.2808
7.63774
1.55962
-3.47112
-7.68519
1.37115
-2.32782
-5.69703
0.753153
-1.96126
-4.37343
-0.0821879
-1.90425
-3.60543
-5.26593
-0.253063
-1.88453
-3.36415
-0.589128
-1.75805
-2.80151
-0.937456
-1.77809
-2.53537
-0.858625
-1.39727
-1.82764
-2.17054
-1.6091
-1.88224
-2.12148
-1.76815
-1.94806
-2.10371
-1.89851
-2.01434
-2.12459
-2.2348
-1.91034
-2.02184
-2.12501
-1.90651
-1.9902
-2.06376
-1.88077
-1.92572
-1.95329
-1.9646
-29.678
-30.0523
-30.8701
-32.298
-34.7154
-39.0462
-48.0024
-69.1976
11.685
-13.5891
-34.8394
10.8451
-7.48223
-23.4302
9.15872
-4.98578
-18.1064
12.8083
2.40476
-3.64058
-9.96625
3.69875
-2.19267
-7.30388
2.46111
-1.84157
-5.44664
1.09024
-1.73709
-3.76189
-6.46694
0.94187
-1.79549
-4.05041
0.147964
-1.7078
-3.27247
-0.435547
-1.75525
-2.93091
-0.427286
-1.32372
-1.8333
-2.3195
-1.45164
-1.86957
-2.21445
-1.66562
-1.93883
-2.15932
-1.83583
-2.00552
-2.13506
-2.31322
-1.83231
-2.01714
-2.17767
-1.85027
-1.98686
-2.10448
-1.83502
-1.91684
-1.95031
-1.96277
-29.699
-30.077
-30.9045
-32.3545
-34.8288
-39.3565
-49.5059
-87.0594
29.2829
-13.0498
-45.5507
21.7519
-7.21083
-31.2318
17.074
-4.89372
-25.1904
20.0693
2.97184
-3.78874
-13.2687
7.02109
-2.1068
-9.67469
4.88314
-1.76592
-7.04166
2.73647
-1.62145
-3.87419
-8.18252
2.65354
-1.73704
-5.06848
1.19234
-1.67587
-3.96959
0.277545
-1.74138
-3.5154
0.175903
-1.27473
-1.84006
-2.5378
-1.22889
-1.86143
-2.35339
-1.5214
-1.93284
-2.24292
-1.74816
-1.99922
-2.14231
-2.42508
-1.72028
-2.0139
-2.25532
-1.77041
-1.98465
-2.16505
-1.77151
-1.91096
-1.94856
-1.96169
)
;

boundaryField
{
    left
    {
        type            calculated;
        value           nonuniform List<scalar> 
32
(
-20.2218
-20.2996
-20.4474
-20.6569
-20.9208
-21.2328
-21.5866
-21.9767
-22.3975
-22.8434
-23.309
-23.7888
-24.277
-24.7682
-25.2566
-25.7369
-26.2038
-26.6522
-27.0778
-27.4767
-27.8454
-28.1816
-28.4834
-28.7497
-28.9804
-29.1758
-29.3371
-29.4659
-29.564
-29.6339
-29.678
-29.699
)
;
    }
    right
    {
        type            calculated;
        value           nonuniform List<scalar> 
32
(
-2.14075
-2.13938
-2.13681
-2.13318
-2.12867
-2.12341
-2.11752
-2.1111
-2.10426
-2.09707
-2.08961
-2.08194
-2.0741
-2.06615
-2.05814
-2.05009
-2.04205
-2.03407
-2.02618
-2.01844
-2.0109
-2.00363
-1.9967
-1.99021
-1.98423
-1.97887
-1.97419
-1.97025
-1.96707
-1.9646
-1.96277
-1.96169
)
;
    }
    interface
    {
        type            calculated;
        value           nonuniform List<scalar> 
64
(
-29.704
-30.0829
-30.9128
-32.3681
-34.8565
-39.4355
-49.994
-97.4922
39.6495
-12.8715
-51.8993
28.1503
-7.12428
-35.8517
21.7223
-4.86631
-29.3842
24.3078
3.1588
-3.84631
-15.2144
8.97118
-2.07963
-11.0805
6.30179
-1.74209
-7.98956
3.69738
-1.58237
-3.913
-9.18923
3.65917
-1.71812
-5.67328
1.80385
-1.66579
-4.38342
0.695463
-1.73716
-3.86217
0.527484
-1.25869
-1.84306
-2.66695
-1.09856
-1.85884
-2.43616
-1.4372
-1.93093
-2.29283
-1.69711
-1.99705
-2.14477
-2.49076
-1.65448
-2.01283
-2.30141
-1.72367
-1.98395
-2.20111
-1.73462
-1.90905
-1.94805
-1.9614
)
;
    }
    bottom
    {
        type            calculated;
        value           nonuniform List<scalar> 
64
(
-20.2015
-20.1056
-19.9149
-19.6315
-19.2591
-18.8029
-18.2694
-17.6672
-17.0061
-16.2972
-15.5524
-14.7838
-14.0031
-13.2216
-12.4491
-11.6943
-10.9645
-10.2653
-9.60085
-8.97391
-8.38605
-7.83776
-7.32866
-6.85772
-6.42337
-6.02375
-5.65675
-5.32019
-5.01185
-4.72958
-4.47134
-4.23523
-4.01951
-3.8226
-3.64307
-3.47964
-3.33113
-3.19646
-3.07463
-2.9647
-2.86576
-2.77696
-2.69747
-2.6265
-2.56326
-2.50705
-2.45715
-2.41292
-2.37375
-2.33911
-2.30848
-2.28142
-2.25755
-2.23653
-2.21807
-2.20194
-2.18796
-2.17597
-2.16585
-2.15752
-2.15092
-2.146
-2.14274
-2.14111
)
;
    }
    defaultFaces
    {
        type            empty;
    }
}


// ************************************************************************* //
