/*--------------------------------*- C++ -*----------------------------------*\
| =========                 |                                                 |
| \\      /  F ield         | OpenFOAM: The Open Source CFD Toolbox           |
|  \\    /   O peration     | Version:  5.x                                   |
|   \\  /    A nd           | Web:      www.OpenFOAM.org                      |
|    \\/     M anipulation  |                                                 |
\*---------------------------------------------------------------------------*/
FoamFile
{
    version     2.0;
    format      ascii;
    class       volScalarField;
    location    "6.3";
    object      T;
}
// * * * * * * * * * * * * * * * * * * * * * * * * * * * * * * * * * * * * * //

dimensions      [0 0 0 1 0 0 0];

internalField   nonuniform List<scalar> 
2048
(
9.85487
9.85556
9.85693
9.85896
9.86164
9.86492
9.86875
9.87307
9.87782
9.88292
9.88827
9.89379
9.8994
9.90501
9.91056
9.91598
9.92123
9.92625
9.93102
9.93553
9.93975
9.94369
9.94735
9.95073
9.95385
9.95672
9.95936
9.96178
9.96399
9.96602
9.96788
9.96957
9.97112
9.97254
9.97383
9.975
9.97607
9.97704
9.97791
9.9787
9.97941
9.98005
9.98062
9.98113
9.98158
9.98199
9.98235
9.98266
9.98295
9.9832
9.98342
9.98361
9.98378
9.98393
9.98406
9.98418
9.98428
9.98437
9.98444
9.9845
9.98455
9.98458
9.98461
9.98462
9.57038
9.57242
9.57649
9.58253
9.59046
9.60019
9.61157
9.62442
9.63853
9.65366
9.66955
9.68594
9.70259
9.71925
9.7357
9.75178
9.76731
9.78219
9.79631
9.80964
9.82213
9.83377
9.84458
9.85457
9.86378
9.87226
9.88004
9.88717
9.89371
9.89969
9.90517
9.91017
9.91474
9.91892
9.92272
9.92619
9.92933
9.93219
9.93477
9.9371
9.9392
9.94108
9.94276
9.94426
9.9456
9.94679
9.94785
9.94878
9.94961
9.95034
9.95099
9.95157
9.95207
9.95251
9.95291
9.95325
9.95354
9.9538
9.95401
9.95419
9.95433
9.95443
9.9545
9.95454
9.29678
9.30014
9.30682
9.31674
9.3298
9.3458
9.36454
9.3857
9.40893
9.43385
9.46001
9.487
9.51438
9.54176
9.56879
9.59516
9.62062
9.64499
9.6681
9.68989
9.71029
9.72929
9.74691
9.7632
9.77821
9.79201
9.80468
9.81629
9.82692
9.83665
9.84556
9.85369
9.86113
9.86792
9.87411
9.87975
9.88487
9.88951
9.89371
9.8975
9.9009
9.90396
9.90669
9.90913
9.91131
9.91324
9.91495
9.91647
9.91781
9.919
9.92005
9.92097
9.92179
9.92251
9.92315
9.9237
9.92418
9.92459
9.92494
9.92523
9.92546
9.92563
9.92574
9.9258
9.03284
9.03747
9.0467
9.06042
9.07848
9.10066
9.12663
9.15598
9.18822
9.22278
9.25907
9.29648
9.33439
9.37227
9.40962
9.44602
9.48111
9.51465
9.54643
9.57633
9.6043
9.63033
9.65445
9.67672
9.69722
9.71606
9.73334
9.74918
9.76368
9.77694
9.78908
9.80018
9.81031
9.81957
9.82801
9.8357
9.84268
9.84901
9.85473
9.85989
9.86453
9.86869
9.87241
9.87573
9.87868
9.8813
9.88363
9.88568
9.88751
9.88912
9.89054
9.8918
9.89291
9.89389
9.89475
9.8955
9.89615
9.89672
9.89719
9.89758
9.89789
9.89812
9.89828
9.89835
8.7775
8.78339
8.79511
8.81256
8.83556
8.86383
8.89698
8.93448
8.97568
9.01986
9.06622
9.11396
9.16231
9.21054
9.25802
9.30422
9.34869
9.39112
9.43126
9.46897
9.50419
9.53691
9.5672
9.59513
9.62083
9.64442
9.66604
9.68585
9.70398
9.72056
9.73573
9.7496
9.76228
9.77385
9.78441
9.79402
9.80275
9.81066
9.81781
9.82426
9.83005
9.83524
9.83988
9.84402
9.84769
9.85095
9.85384
9.8564
9.85866
9.86066
9.86243
9.86399
9.86537
9.86659
9.86766
9.8686
9.86941
9.87011
9.87071
9.8712
9.87158
9.87187
9.87207
9.87216
8.52993
8.53704
8.5512
8.57233
8.60021
8.63455
8.67486
8.72052
8.77072
8.82455
8.88101
8.93909
8.99782
9.05631
9.1138
9.16962
9.22325
9.27431
9.32253
9.36774
9.40989
9.44899
9.48512
9.51841
9.54899
9.57704
9.60274
9.62626
9.64778
9.66747
9.68547
9.70194
9.71699
9.73073
9.74326
9.75467
9.76504
9.77443
9.78292
9.79056
9.79743
9.80358
9.80907
9.81396
9.8183
9.82215
9.82556
9.82857
9.83124
9.83359
9.83567
9.83751
9.83914
9.84057
9.84183
9.84294
9.84391
9.84474
9.84544
9.84602
9.84649
9.84683
9.84706
9.84718
8.28943
8.29773
8.31429
8.33903
8.37175
8.41213
8.45963
8.51351
8.57281
8.63639
8.70303
8.77151
8.84065
8.90937
8.97676
9.04206
9.10466
9.16413
9.22015
9.27256
9.32133
9.36649
9.40815
9.44647
9.48164
9.51387
9.54336
9.57034
9.59502
9.61759
9.63823
9.65711
9.67437
9.69013
9.70451
9.7176
9.72949
9.74027
9.75
9.75876
9.76662
9.77365
9.77993
9.78551
9.79046
9.79484
9.79872
9.80215
9.80518
9.80785
9.81021
9.8123
9.81415
9.81579
9.81722
9.81849
9.81959
9.82054
9.82135
9.82202
9.82255
9.82295
9.82321
9.82334
8.05544
8.06489
8.08379
8.11207
8.14958
8.19599
8.25073
8.31294
8.38147
8.45497
8.53196
8.61095
8.69055
8.7695
8.84674
8.92139
8.99278
9.06042
9.12398
9.18332
9.23839
9.28928
9.33615
9.3792
9.41866
9.45477
9.4878
9.51799
9.54558
9.57082
9.5939
9.61502
9.63433
9.65198
9.66808
9.68274
9.69605
9.7081
9.71899
9.72878
9.73756
9.74541
9.7524
9.75861
9.76411
9.76897
9.77328
9.77707
9.78043
9.78339
9.78601
9.78832
9.79037
9.79218
9.79378
9.79519
9.79642
9.79748
9.79838
9.79913
9.79973
9.80017
9.80047
9.80062
7.82749
7.83806
7.85921
7.89095
7.93319
7.98563
8.04767
8.11835
8.19632
8.27995
8.36748
8.45715
8.5473
8.6365
8.72354
8.80744
8.88745
8.96305
9.0339
9.09986
9.16093
9.21724
9.269
9.31646
9.35991
9.39963
9.43592
9.46907
9.49936
9.52705
9.55239
9.57558
9.59679
9.61619
9.63388
9.64999
9.66462
9.67787
9.68982
9.70057
9.71019
9.71878
9.72642
9.7332
9.73919
9.74449
9.74917
9.7533
9.75694
9.76015
9.76299
9.76551
9.76773
9.7697
9.77145
9.77298
9.77433
9.7755
9.77649
9.77731
9.77797
9.77847
9.77879
9.77896
7.60525
7.61687
7.64017
7.67526
7.72214
7.78058
7.85
7.92931
8.01696
8.11101
8.20934
8.30987
8.4107
8.51019
8.607
8.70004
8.78852
8.87186
8.94974
9.02203
9.08878
9.15019
9.20652
9.2581
9.30524
9.34829
9.38758
9.42345
9.45621
9.48615
9.51356
9.53866
9.56163
9.58264
9.60182
9.61928
9.63514
9.64948
9.66242
9.67404
9.68444
9.6937
9.70193
9.70922
9.71566
9.72134
9.72635
9.73076
9.73465
9.73809
9.74112
9.74381
9.74619
9.7483
9.75018
9.75183
9.75329
9.75455
9.75563
9.75652
9.75724
9.75778
9.75813
9.75831
7.38842
7.40102
7.42636
7.46465
7.51604
7.58044
7.65731
7.74547
7.84309
7.94787
8.0573
8.16892
8.28057
8.39041
8.49695
8.59903
8.69581
8.78669
8.87133
8.94965
9.02176
9.08795
9.14854
9.20393
9.25448
9.30059
9.34263
9.38098
9.41598
9.44799
9.47729
9.50414
9.52874
9.55125
9.5718
9.59052
9.6075
9.62286
9.63671
9.64913
9.66023
9.67011
9.67887
9.68661
9.69343
9.69945
9.70474
9.7094
9.71351
9.71714
9.72034
9.72318
9.72569
9.72793
9.72992
9.73168
9.73324
9.73459
9.73574
9.73671
9.73748
9.73806
9.73845
9.73864
7.17682
7.19031
7.21752
7.25881
7.31455
7.38484
7.46923
7.56646
7.67441
7.7903
7.91116
8.03414
8.15675
8.27698
8.39321
8.50424
8.60915
8.70735
8.79849
8.88253
8.95969
9.03032
9.09486
9.15376
9.20744
9.25635
9.3009
9.34149
9.37854
9.41241
9.44344
9.4719
9.498
9.5219
9.54372
9.56359
9.58162
9.59792
9.6126
9.62576
9.6375
9.64793
9.65716
9.66529
9.67246
9.67876
9.6843
9.68917
9.69347
9.69725
9.70059
9.70356
9.70619
9.70854
9.71063
9.71249
9.71413
9.71557
9.7168
9.71783
9.71865
9.71927
9.71969
9.7199
6.97031
6.98458
7.01346
7.05751
7.11738
7.19343
7.2854
7.39196
7.51064
7.63809
7.77076
7.90535
8.03909
8.16974
8.29563
8.41548
8.52837
8.63366
8.73103
8.82048
8.90234
8.9771
9.04528
9.10739
9.16394
9.2154
9.26221
9.30484
9.34371
9.37926
9.41186
9.4418
9.46928
9.49447
9.51748
9.53842
9.55742
9.57458
9.59002
9.60385
9.61618
9.6271
9.63674
9.64522
9.65267
9.65921
9.66496
9.67001
9.67446
9.67837
9.68183
9.6849
9.68763
9.69007
9.69226
9.69421
9.69594
9.69745
9.69875
9.69984
9.70072
9.70138
9.70182
9.70204
6.76879
6.78371
6.81403
6.86055
6.92425
7.0059
7.10548
7.22168
7.35156
7.49106
7.63595
7.78245
7.92744
8.06854
8.20403
8.33258
8.45326
8.56544
8.66875
8.76329
8.84952
8.92807
8.99958
9.06463
9.12379
9.17755
9.22641
9.27084
9.31135
9.3484
9.38242
9.41371
9.44248
9.46886
9.49296
9.5149
9.53479
9.55275
9.56889
9.58333
9.59618
9.60754
9.61754
9.62631
9.63401
9.64075
9.64667
9.65186
9.65643
9.66045
9.664
9.66716
9.66997
9.67249
9.67476
9.67679
9.6786
9.68018
9.68155
9.6827
9.68363
9.68433
9.68479
9.68503
6.57222
6.58765
6.61913
6.66775
6.73493
6.82192
6.92914
7.0553
7.19695
7.34906
7.50662
7.66532
7.82168
7.97322
8.11822
8.25534
8.38365
8.50249
8.61148
8.71076
8.80099
8.88301
8.95754
9.02527
9.08679
9.14263
9.19331
9.23936
9.2813
9.31968
9.35497
9.38751
9.41747
9.44496
9.47009
9.49295
9.51365
9.53234
9.54913
9.56413
9.57745
9.5892
9.5995
9.60852
9.61641
9.62332
9.62937
9.63467
9.63933
9.64344
9.64706
9.65028
9.65316
9.65575
9.65809
9.66019
9.66207
9.66373
9.66517
9.66637
9.66735
9.66808
9.66857
9.66882
6.3806
6.39638
6.4287
6.479
6.54921
6.64122
6.75603
6.89254
7.04663
7.21199
7.38268
7.55386
7.72168
7.88362
8.03803
8.18355
8.31931
8.44463
8.559
8.66266
8.75653
8.84169
8.91896
8.9891
9.05276
9.11046
9.16276
9.21022
9.25342
9.29294
9.32937
9.36306
9.39413
9.42267
9.44875
9.47246
9.49392
9.51328
9.53065
9.54616
9.55991
9.572
9.58256
9.59177
9.59982
9.60685
9.613
9.61839
9.62312
9.62728
9.63096
9.63423
9.63716
9.6398
9.64221
9.64438
9.64633
9.64806
9.64955
9.65082
9.65184
9.65261
9.65313
9.65338
6.19394
6.20989
6.24271
6.29421
6.36689
6.46348
6.58581
6.7331
6.90044
7.07976
7.26405
7.448
7.62733
7.79957
7.96327
8.11703
8.26005
8.39167
8.51114
8.61878
8.71591
8.80388
8.88361
8.95591
9.0215
9.08086
9.13458
9.18329
9.22755
9.26805
9.30549
9.34025
9.37237
9.40188
9.42886
9.45336
9.47551
9.49549
9.51339
9.52936
9.5435
9.55588
9.56665
9.57601
9.58417
9.59129
9.59752
9.60297
9.60775
9.61194
9.61565
9.61895
9.62192
9.62461
9.62707
9.62931
9.63133
9.63312
9.63468
9.636
9.63707
9.63788
9.63841
9.63868
6.0123
6.02822
6.06116
6.1133
6.18782
6.28842
6.41809
6.57666
6.75827
6.95234
7.15069
7.34769
7.53851
7.72089
7.89374
8.05553
8.20564
8.34343
8.46771
8.5789
8.67887
8.76936
8.85127
8.9255
8.99284
9.05368
9.10864
9.15841
9.20355
9.24486
9.28319
9.31896
9.35208
9.38251
9.41033
9.43556
9.45834
9.47888
9.49728
9.51366
9.52816
9.5408
9.55172
9.56118
9.56942
9.5766
9.58287
9.58836
9.59316
9.59738
9.6011
9.60441
9.6074
9.61013
9.61265
9.61494
9.61702
9.61888
9.6205
9.62188
9.623
9.62384
9.6244
9.62468
5.83572
5.85142
5.88408
5.93626
6.01187
6.11577
6.25248
6.42291
6.62007
6.82971
7.04252
7.25289
7.45511
7.64737
7.82926
7.99884
8.15583
8.29975
8.42855
8.5428
8.64516
8.7379
8.82174
8.89768
8.96661
9.02875
9.08477
9.13546
9.1813
9.22322
9.26233
9.29909
9.33316
9.36446
9.39309
9.41898
9.44233
9.46339
9.48223
9.499
9.51383
9.52668
9.53771
9.54723
9.55551
9.56272
9.569
9.57451
9.57932
9.58354
9.58726
9.59057
9.59356
9.59632
9.59889
9.60125
9.60339
9.60531
9.60699
9.60842
9.60959
9.61047
9.61105
9.61134
5.66427
5.67955
5.71152
5.76309
5.83893
5.94524
6.08853
6.27145
6.48586
6.71193
6.93948
7.16358
7.37699
7.57879
7.76963
7.94672
8.11036
8.26047
8.39351
8.51024
8.61453
8.70929
8.79481
8.87223
8.94266
9.00593
9.06283
9.11432
9.16067
9.20299
9.24276
9.28054
9.31553
9.34764
9.37706
9.40355
9.4274
9.44895
9.46818
9.4853
9.50045
9.51349
9.52457
9.53409
9.54239
9.54959
9.55588
9.56138
9.56619
9.57039
9.5741
9.57739
9.58038
9.58316
9.58578
9.58819
9.59039
9.59238
9.59412
9.5956
9.59683
9.59774
9.59834
9.59863
5.49801
5.51267
5.54354
5.59383
5.66895
5.77659
5.92577
6.12186
6.35575
6.59907
6.84147
7.07979
7.30406
7.51486
7.71468
7.8989
8.06893
8.2255
8.36247
8.48099
8.58667
8.68333
8.77028
8.84895
8.92084
8.98507
9.04266
9.09488
9.14155
9.18404
9.22436
9.26321
9.29911
9.33197
9.36217
9.3892
9.41348
9.4355
9.45507
9.47249
9.48798
9.50117
9.51224
9.52171
9.53001
9.53719
9.54344
9.54894
9.55372
9.55789
9.56158
9.56484
9.5678
9.57059
9.57327
9.57574
9.578
9.58005
9.58185
9.58339
9.58466
9.58561
9.58623
9.58652
5.33698
5.35085
5.38022
5.42854
5.50191
5.60956
5.76363
5.97359
6.23002
6.49128
6.74832
7.0016
7.23617
7.45525
7.6643
7.85515
8.03117
8.19476
8.33534
8.4548
8.56128
8.65984
8.74797
8.82762
8.90103
8.96605
9.02412
9.07706
9.12385
9.16621
9.20697
9.24706
9.28383
9.31736
9.34837
9.37586
9.40048
9.42297
9.44284
9.46052
9.47638
9.48969
9.50067
9.51004
9.51832
9.52546
9.53166
9.53715
9.54189
9.546
9.54967
9.55288
9.55579
9.55859
9.56134
9.56386
9.56617
9.5683
9.57015
9.57174
9.57308
9.57407
9.57469
9.57499
5.18125
5.19416
5.22164
5.26732
5.33783
5.44398
5.60152
5.82593
6.10918
6.38874
6.65971
6.92921
7.17321
7.39951
7.61842
7.81518
7.99663
8.16828
8.31207
8.43139
8.53801
8.63871
8.7277
8.80802
8.88315
8.94873
9.00704
9.06081
9.10748
9.14937
9.19043
9.23203
9.26963
9.30371
9.33561
9.36347
9.38831
9.41133
9.43141
9.44929
9.46562
9.47901
9.48981
9.49903
9.5073
9.51436
9.52048
9.52597
9.53065
9.5347
9.53833
9.54149
9.54433
9.54713
9.54996
9.55254
9.55489
9.55711
9.55901
9.56064
9.56205
9.56308
9.5637
9.564
5.03083
5.04263
5.06789
5.11027
5.17681
5.27969
5.43876
5.67793
5.99405
6.29167
6.57516
6.86293
7.11505
7.34707
7.57711
7.77873
7.96473
8.14619
8.29265
8.41047
8.51644
8.61985
8.70933
8.78988
8.86716
8.93302
8.99124
9.04608
9.09238
9.13336
9.17455
9.21813
9.25645
9.29091
9.32389
9.35198
9.37689
9.40054
9.42075
9.43875
9.45566
9.46909
9.47961
9.4886
9.4969
9.50385
9.50987
9.51538
9.51998
9.52394
9.52756
9.53063
9.53338
9.53616
9.53911
9.54173
9.54412
9.54644
9.54838
9.55005
9.55156
9.55261
9.55324
9.55352
4.88575
4.89632
4.91905
4.95755
5.01898
5.11665
5.27466
5.52826
5.88592
6.20035
6.49384
6.80331
7.06156
7.29713
7.54062
7.74553
7.93472
8.12876
8.27711
8.39173
8.49608
8.6033
8.6927
8.77289
8.85307
8.9188
8.97648
9.0329
9.07851
9.11803
9.15911
9.20539
9.24427
9.27882
9.31319
9.34132
9.3661
9.39059
9.41078
9.42878
9.44651
9.45992
9.47002
9.47871
9.4871
9.49391
9.49977
9.50535
9.50985
9.51369
9.51731
9.52028
9.5229
9.52566
9.52878
9.53143
9.53384
9.53627
9.53824
9.53994
9.54156
9.54265
9.54327
9.54354
4.74598
4.75522
4.77519
4.80929
4.86455
4.95491
5.10848
5.37508
5.78669
6.11504
6.41454
6.75126
7.01261
7.24861
7.50945
7.71529
7.90555
8.11651
8.2655
8.37479
8.47633
8.58919
8.6777
8.75663
8.841
8.90598
8.96249
9.02135
9.06584
9.10322
9.14384
9.19393
9.23303
9.26728
9.30357
9.33146
9.35582
9.38149
9.40146
9.41927
9.43818
9.45147
9.46098
9.46928
9.47788
9.48449
9.49015
9.49586
9.50022
9.5039
9.50757
9.51041
9.51287
9.51558
9.51894
9.5216
9.524
9.5266
9.52858
9.53029
9.53206
9.53317
9.53376
9.53402
4.61151
4.61936
4.63637
4.66564
4.71377
4.79466
4.93959
5.21578
5.69916
6.03602
6.33541
6.70815
6.96803
7.20002
7.48451
7.68776
7.87582
8.11027
8.25792
8.35929
8.45645
8.57785
8.6642
8.74061
8.83117
8.89447
8.94891
9.01157
9.05434
9.08878
9.12841
9.18394
9.22272
9.25607
9.29512
9.32234
9.34587
9.37329
9.39274
9.41008
9.43071
9.44372
9.45245
9.46024
9.46923
9.47558
9.48095
9.48691
9.49108
9.49455
9.49834
9.50102
9.50326
9.50589
9.50959
9.51222
9.51457
9.51741
9.51936
9.52105
9.52304
9.52416
9.52471
9.52494
4.48229
4.48869
4.50263
4.52676
4.56693
4.63624
4.76746
5.0467
5.6273
5.96348
6.25382
6.67605
6.92766
7.14931
7.46722
7.66267
7.84364
8.11133
8.25441
8.3448
8.43549
8.56984
8.65209
8.72414
8.82398
8.88418
8.93526
9.00383
9.04403
9.07455
9.11236
9.17574
9.21329
9.24489
9.28799
9.31391
9.33604
9.3661
9.38458
9.40103
9.42419
9.43666
9.44437
9.4515
9.46119
9.46713
9.4721
9.47849
9.48239
9.48559
9.4896
9.49207
9.49404
9.49654
9.50074
9.50328
9.50552
9.50869
9.51057
9.51219
9.51447
9.51558
9.51607
9.51627
4.35824
4.36319
4.37398
4.39276
4.42436
4.48017
4.59192
4.86273
5.57666
5.89751
6.16604
6.65797
6.89127
7.0937
7.45975
7.63974
7.80646
8.12155
8.25495
8.33092
8.41221
8.56603
8.64127
8.70633
8.82003
8.87501
8.92092
8.99852
9.03488
9.0604
9.09513
9.16981
9.20472
9.23335
9.28244
9.30614
9.32605
9.36008
9.37692
9.39188
9.41874
9.43026
9.43669
9.44295
9.45377
9.45912
9.46353
9.47063
9.47413
9.47695
9.48136
9.48354
9.48518
9.48747
9.4924
9.49475
9.49679
9.50044
9.50218
9.50367
9.50637
9.50742
9.50784
9.508
4.23929
4.24278
4.25042
4.26376
4.28639
4.32715
4.4133
4.65685
5.55481
5.83796
6.06699
6.65817
6.85856
7.02946
7.46518
7.61871
7.76087
8.14361
8.25935
8.31729
8.38504
8.5677
8.63161
8.68602
8.82023
8.86686
8.90506
8.99623
9.02686
9.04624
9.07595
9.16683
9.19695
9.22093
9.27885
9.29896
9.31555
9.35548
9.36972
9.38233
9.41457
9.42448
9.42935
9.43447
9.44704
9.45153
9.45515
9.46335
9.46628
9.46859
9.47362
9.47543
9.47667
9.47862
9.48459
9.48662
9.48834
9.49269
9.49418
9.49545
9.49874
9.49966
9.49999
9.5001
4.12532
4.12738
4.1319
4.13983
4.15334
4.17801
4.23276
4.41951
5.57192
5.78436
5.94989
6.68251
6.8291
6.95166
7.48781
7.5993
7.70241
8.18121
8.26712
8.30365
8.35196
8.57664
8.62296
8.66167
8.82583
8.85958
8.88662
8.99779
9.01989
9.03207
9.05382
9.16774
9.1899
9.20695
9.27775
9.29231
9.30407
9.35267
9.36294
9.37198
9.41196
9.41927
9.42232
9.4259
9.44111
9.44433
9.44686
9.45672
9.45882
9.46042
9.46643
9.46771
9.46848
9.46991
9.47737
9.47886
9.48009
9.48545
9.48654
9.48746
9.49159
9.49228
9.49249
9.49256
4.01621
4.01689
4.01838
4.021
4.02547
4.03369
4.05265
4.13796
5.64142
5.73576
5.80585
6.73893
6.80228
6.85388
7.53347
7.58122
7.62526
8.23937
8.27736
8.28994
8.31036
8.59527
8.61512
8.63128
8.83856
8.853
8.86423
9.00431
9.01379
9.01798
9.02745
9.17379
9.18345
9.19055
9.27989
9.28612
9.291
9.35216
9.35652
9.36034
9.41132
9.41452
9.41557
9.41705
9.43611
9.43748
9.43851
9.45082
9.45171
9.45236
9.45982
9.46036
9.46062
9.46124
9.47081
9.47145
9.47197
9.47878
9.47924
9.47963
9.48494
9.48526
9.48533
9.48535
)
;

boundaryField
{
    left
    {
        type            zeroGradient;
    }
    right
    {
        type            zeroGradient;
    }
    interface
    {
        type            fixedValue;
        value           nonuniform List<scalar> 
64
(
3.96286
3.96286
3.96286
3.96286
3.96286
3.96286
3.96286
3.96286
5.71264
5.71264
5.71264
6.78949
6.78949
6.78949
7.57248
7.57248
7.57248
8.28303
8.28303
8.28303
8.28303
8.61138
8.61138
8.61138
8.84988
8.84988
8.84988
9.01095
9.01095
9.01095
9.01095
9.18036
9.18036
9.18036
9.28313
9.28313
9.28313
9.3534
9.3534
9.3534
9.41226
9.41226
9.41226
9.41226
9.43414
9.43414
9.43414
9.44824
9.44824
9.44824
9.45677
9.45677
9.45677
9.45677
9.46784
9.46784
9.46784
9.47568
9.47568
9.47568
9.48183
9.48183
9.48183
9.48183
)
;
    }
    bottom
    {
        type            fixedValue;
        value           uniform 10;
    }
    defaultFaces
    {
        type            empty;
    }
}


// ************************************************************************* //
