/*--------------------------------*- C++ -*----------------------------------*\
| =========                 |                                                 |
| \\      /  F ield         | OpenFOAM: The Open Source CFD Toolbox           |
|  \\    /   O peration     | Version:  5.x                                   |
|   \\  /    A nd           | Web:      www.OpenFOAM.org                      |
|    \\/     M anipulation  |                                                 |
\*---------------------------------------------------------------------------*/
FoamFile
{
    version     2.0;
    format      ascii;
    class       volScalarField;
    location    "5";
    object      gradTy;
}
// * * * * * * * * * * * * * * * * * * * * * * * * * * * * * * * * * * * * * //

dimensions      [0 -1 0 1 0 0 0];

internalField   nonuniform List<scalar> 
2048
(
-20.3618
-20.2667
-20.0775
-19.7966
-19.4273
-18.9749
-18.4458
-17.8487
-17.1934
-16.4909
-15.7533
-14.9927
-14.2208
-13.4488
-12.6867
-11.943
-11.2249
-10.538
-9.8863
-9.27255
-8.69819
-8.16363
-7.66839
-7.21136
-6.79091
-6.40507
-6.05167
-5.72845
-5.43313
-5.16347
-4.91738
-4.69286
-4.48812
-4.30151
-4.13156
-3.97691
-3.83636
-3.70881
-3.59323
-3.48869
-3.3943
-3.30921
-3.23265
-3.16385
-3.10209
-3.04671
-2.99708
-2.95261
-2.91277
-2.87707
-2.8451
-2.81647
-2.79087
-2.76801
-2.74768
-2.7297
-2.71393
-2.70027
-2.68864
-2.679
-2.67131
-2.66556
-2.66173
-2.65981
-20.4387
-20.3427
-20.1518
-19.868
-19.4946
-19.0367
-18.5009
-17.8958
-17.2314
-16.5194
-15.772
-15.0017
-14.2209
-13.4408
-12.6717
-11.9223
-11.1997
-10.5094
-9.85554
-9.24061
-8.66592
-8.13173
-7.63741
-7.18169
-6.76282
-6.37873
-6.02717
-5.70579
-5.41226
-5.14432
-4.89981
-4.67676
-4.47335
-4.28794
-4.11906
-3.96539
-3.82574
-3.699
-3.58419
-3.48037
-3.38665
-3.30221
-3.22625
-3.15803
-3.09682
-3.04195
-2.99279
-2.94874
-2.90929
-2.87395
-2.84228
-2.81391
-2.78852
-2.76585
-2.74566
-2.72779
-2.71211
-2.69851
-2.68692
-2.67731
-2.66963
-2.66389
-2.66006
-2.65815
-20.5848
-20.4873
-20.2931
-20.004
-19.623
-19.1548
-18.606
-17.9855
-17.3038
-16.5733
-15.807
-15.0184
-14.2203
-13.4248
-12.6425
-11.8821
-11.151
-10.4545
-9.7966
-9.17954
-8.60436
-8.07098
-7.57849
-7.12534
-6.70955
-6.32884
-5.98079
-5.66294
-5.37285
-5.10815
-4.86667
-4.64639
-4.44548
-4.26233
-4.09549
-3.94366
-3.80568
-3.6805
-3.56712
-3.46464
-3.3722
-3.28897
-3.21417
-3.14704
-3.08686
-3.03296
-2.98469
-2.94146
-2.90275
-2.86806
-2.83696
-2.80909
-2.78412
-2.76178
-2.74187
-2.72421
-2.70867
-2.69518
-2.68367
-2.6741
-2.66646
-2.66072
-2.6569
-2.655
-20.7919
-20.6924
-20.4939
-20.1976
-19.806
-19.3234
-18.7562
-18.1136
-17.4069
-16.6495
-15.8559
-15.0408
-14.218
-13.4005
-12.5992
-11.8234
-11.0804
-10.3753
-9.71194
-9.09213
-8.5165
-7.98453
-7.49485
-7.04553
-6.63424
-6.25843
-5.91546
-5.60267
-5.31748
-5.05742
-4.82022
-4.60384
-4.40645
-4.22646
-4.06246
-3.91319
-3.77756
-3.65452
-3.54315
-3.44256
-3.3519
-3.27038
-3.1972
-3.13161
-3.0729
-3.02036
-2.97335
-2.93128
-2.8936
-2.85984
-2.82955
-2.80237
-2.77798
-2.75611
-2.73657
-2.7192
-2.70388
-2.69053
-2.67911
-2.66961
-2.66199
-2.65628
-2.65247
-2.65056
-21.053
-20.9512
-20.7477
-20.443
-20.0385
-19.538
-18.9475
-18.2765
-17.5375
-16.7453
-15.9164
-15.0669
-14.2125
-13.3669
-12.5418
-11.7466
-10.9888
-10.2733
-9.60337
-8.98055
-8.40482
-7.87504
-7.38928
-6.94508
-6.5397
-6.17025
-5.83381
-5.52749
-5.24853
-4.99433
-4.76253
-4.55104
-4.35803
-4.18194
-4.02144
-3.87534
-3.74259
-3.62221
-3.51332
-3.41506
-3.32662
-3.24722
-3.17607
-3.11242
-3.05553
-3.00471
-2.95928
-2.91866
-2.88228
-2.84967
-2.8204
-2.79408
-2.77041
-2.74913
-2.73005
-2.71302
-2.69794
-2.68477
-2.67346
-2.66401
-2.65643
-2.65073
-2.64692
-2.64502
-21.3615
-21.2575
-21.049
-20.7352
-20.3165
-19.7952
-19.1769
-18.4716
-17.693
-16.8583
-15.986
-15.0949
-14.2022
-13.3229
-12.4695
-11.6517
-10.8766
-10.1493
-9.47229
-8.84658
-8.27139
-7.74482
-7.26421
-6.8265
-6.42844
-6.06676
-5.73821
-5.43968
-5.16819
-4.92096
-4.69553
-4.48975
-4.30183
-4.13027
-3.9738
-3.83133
-3.70189
-3.58458
-3.47854
-3.38298
-3.29713
-3.2202
-3.15144
-3.09006
-3.03533
-2.98653
-2.94297
-2.90404
-2.86919
-2.83794
-2.80984
-2.78453
-2.76169
-2.74109
-2.72253
-2.70588
-2.69108
-2.67808
-2.66688
-2.65749
-2.64994
-2.64425
-2.64044
-2.63853
-21.7115
-21.6057
-21.3927
-21.0702
-20.6365
-20.0923
-19.4423
-18.6968
-17.8714
-16.986
-16.0625
-15.1225
-14.1852
-13.2672
-12.3816
-11.5382
-10.7442
-10.004
-9.31981
-8.69171
-8.11804
-7.59593
-7.12187
-6.69207
-6.30273
-5.95018
-5.63085
-5.34134
-5.07843
-4.83918
-4.62097
-4.42162
-4.23935
-4.07278
-3.92074
-3.78227
-3.65648
-3.54253
-3.43966
-3.3471
-3.26411
-3.18996
-3.12388
-3.06508
-3.0128
-2.96628
-2.92482
-2.88782
-2.85469
-2.82496
-2.79818
-2.774
-2.7521
-2.73223
-2.71424
-2.698
-2.68348
-2.67066
-2.65955
-2.65021
-2.64267
-2.63697
-2.63315
-2.63124
-22.0975
-21.9906
-21.7743
-21.4442
-20.9959
-20.4275
-19.7423
-18.9508
-18.071
-17.1267
-16.1438
-15.1475
-14.1597
-13.1984
-12.2771
-11.4059
-10.5915
-9.838
-9.14687
-8.51727
-7.94642
-7.43027
-6.96428
-6.54387
-6.16466
-5.82256
-5.51367
-5.23434
-4.98109
-4.75072
-4.54047
-4.34811
-4.17193
-4.01068
-3.86336
-3.72914
-3.60723
-3.49689
-3.3974
-3.30807
-3.22819
-3.15706
-3.09393
-3.03797
-2.98838
-2.94438
-2.90525
-2.87034
-2.8391
-2.81103
-2.7857
-2.76275
-2.74185
-2.72278
-2.70538
-2.68956
-2.67531
-2.66265
-2.65162
-2.6423
-2.63474
-2.62903
-2.62518
-2.62327
-22.5138
-22.4071
-22.1896
-21.8541
-21.3926
-20.7996
-20.076
-19.2326
-18.2904
-17.2782
-16.2274
-15.1676
-14.1237
-13.1148
-12.1551
-11.2542
-10.4186
-9.65166
-8.95426
-8.32446
-7.75807
-7.24962
-6.79337
-6.38387
-6.01616
-5.68575
-5.38849
-5.12042
-4.87779
-4.65715
-4.45551
-4.27058
-4.10078
-3.94506
-3.80263
-3.67281
-3.55495
-3.44837
-3.35243
-3.26648
-3.1899
-3.122
-3.06203
-3.00914
-2.96248
-2.92121
-2.88458
-2.85193
-2.82271
-2.79643
-2.77265
-2.751
-2.73117
-2.71293
-2.69613
-2.68073
-2.66672
-2.65419
-2.64321
-2.63387
-2.62628
-2.62053
-2.61665
-2.61472
-22.955
-22.8502
-22.6344
-22.297
-21.8251
-21.2081
-20.4436
-19.542
-18.5284
-17.4387
-16.3111
-15.1805
-14.075
-13.0151
-12.0147
-11.0829
-10.2255
-9.44537
-8.74272
-8.11441
-7.55448
-7.05571
-6.61098
-6.21391
-5.859
-5.54146
-5.25689
-5.00111
-4.77005
-4.55991
-4.36742
-4.19024
-4.02698
-3.87686
-3.73937
-3.61403
-3.50031
-3.3976
-3.30531
-3.22286
-3.14969
-3.08518
-3.02858
-2.97899
-2.93546
-2.8971
-2.86313
-2.83287
-2.80579
-2.78138
-2.75923
-2.73896
-2.72025
-2.70286
-2.68666
-2.67164
-2.65785
-2.6454
-2.63442
-2.62505
-2.61739
-2.61157
-2.60764
-2.6057
-23.4158
-23.3149
-23.1048
-22.7702
-22.2922
-21.6532
-20.8456
-19.8791
-18.7842
-17.6061
-16.3922
-15.1836
-14.0118
-12.8978
-11.855
-10.8915
-10.0122
-9.21945
-8.51294
-7.88823
-7.33715
-6.85025
-6.41888
-6.03573
-5.69483
-5.39121
-5.12035
-4.87781
-4.65922
-4.46032
-4.27744
-4.10819
-3.95147
-3.80691
-3.67432
-3.55347
-3.44392
-3.34513
-3.25654
-3.17764
-3.10797
-3.04699
-2.99395
-2.94785
-2.90764
-2.87236
-2.84117
-2.81341
-2.78854
-2.76609
-2.74563
-2.7268
-2.70925
-2.69272
-2.6771
-2.66242
-2.6488
-2.63639
-2.62537
-2.6159
-2.60814
-2.60224
-2.59825
-2.59629
-23.8907
-23.7963
-23.5967
-23.2713
-22.7932
-22.1358
-21.2836
-20.2447
-19.0569
-17.7784
-16.4681
-15.1742
-13.9317
-12.7616
-11.6755
-10.6801
-9.779
-8.97426
-8.26554
-7.64702
-7.10757
-6.63494
-6.21881
-5.851
-5.52517
-5.2364
-4.98014
-4.75174
-4.54651
-4.35959
-4.18672
-4.02542
-3.87508
-3.73589
-3.60807
-3.49166
-3.3863
-3.29143
-3.20655
-3.13122
-3.06507
-3.00771
-2.95841
-2.91602
-2.87931
-2.84724
-2.81895
-2.79376
-2.77116
-2.75072
-2.73202
-2.71468
-2.69832
-2.68265
-2.66758
-2.65319
-2.63967
-2.62725
-2.61613
-2.60652
-2.59862
-2.59261
-2.58854
-2.58656
-24.374
-24.2892
-24.106
-23.7976
-23.3277
-22.6573
-21.76
-20.6404
-19.3457
-17.9529
-16.5356
-15.1494
-13.8328
-12.6055
-11.4758
-10.4487
-9.52622
-8.7101
-8.00108
-7.39188
-6.86734
-6.41153
-6.0125
-5.66131
-5.35141
-5.07826
-4.83739
-4.62396
-4.433
-4.25885
-4.09632
-3.94281
-3.79853
-3.66441
-3.54114
-3.42907
-3.32789
-3.23693
-3.15574
-3.08393
-3.02126
-2.96761
-2.92223
-2.88375
-2.85073
-2.822
-2.79667
-2.7741
-2.75382
-2.73543
-2.71853
-2.70272
-2.68759
-2.67278
-2.6582
-2.64403
-2.63055
-2.61804
-2.60676
-2.59697
-2.58888
-2.58273
-2.57858
-2.57658
-24.8603
-24.7885
-24.6284
-24.3466
-23.8954
-23.2201
-22.2783
-21.068
-19.6495
-18.1269
-16.5914
-15.1062
-13.7131
-12.4286
-11.2559
-10.1978
-9.25443
-8.42723
-7.71995
-7.12394
-6.61813
-6.18177
-5.80162
-5.46819
-5.1748
-4.91785
-4.69306
-4.49536
-4.31965
-4.15916
-4.00725
-3.86114
-3.72239
-3.59293
-3.47391
-3.36609
-3.26908
-3.182
-3.10445
-3.03605
-2.97677
-2.92686
-2.88562
-2.8513
-2.82212
-2.79683
-2.77454
-2.7546
-2.73665
-2.72033
-2.70525
-2.69104
-2.67719
-2.66323
-2.64906
-2.63503
-2.6215
-2.60882
-2.59733
-2.58729
-2.57896
-2.57265
-2.56841
-2.56641
-25.344
-25.2889
-25.1595
-24.9154
-24.496
-23.8269
-22.843
-21.5307
-19.967
-18.2966
-16.6319
-15.041
-13.5705
-12.2306
-11.0159
-9.92831
-8.96448
-8.12573
-7.42237
-6.84436
-6.36182
-5.94746
-5.58784
-5.2731
-4.99644
-4.75608
-4.54799
-4.36666
-4.20725
-4.06154
-3.92051
-3.78109
-3.64712
-3.52181
-3.40667
-3.30302
-3.21021
-3.12695
-3.05297
-2.98786
-2.93175
-2.8856
-2.84876
-2.81888
-2.79369
-2.77194
-2.75271
-2.73537
-2.71975
-2.70552
-2.69228
-2.67973
-2.66722
-2.65408
-2.64023
-2.62623
-2.61258
-2.59966
-2.58788
-2.57755
-2.56891
-2.56242
-2.55809
-2.5561
-25.8196
-25.7851
-25.6946
-25.5009
-25.1294
-24.4814
-23.4605
-22.0323
-20.2958
-18.4576
-16.6533
-14.9504
-13.4034
-12.0117
-10.7564
-9.6413
-8.65762
-7.80544
-7.10818
-6.55441
-6.10053
-5.71041
-5.37273
-5.07747
-4.81726
-4.59372
-4.4029
-4.23835
-4.09648
-3.96703
-3.83711
-3.70319
-3.57304
-3.45136
-3.3396
-3.24009
-3.15162
-3.07206
-3.0016
-2.9396
-2.88629
-2.8439
-2.81183
-2.78672
-2.76565
-2.74749
-2.73133
-2.71654
-2.70321
-2.69106
-2.67967
-2.66885
-2.65778
-2.64546
-2.63177
-2.61769
-2.60382
-2.59057
-2.57846
-2.56778
-2.55876
-2.55205
-2.54766
-2.54572
-26.2819
-26.2719
-26.2286
-26.0992
-25.7947
-25.1878
-24.1386
-22.5784
-20.6324
-18.6044
-16.6519
-14.8302
-13.2101
-11.7729
-10.4779
-9.3384
-8.33571
-7.46571
-6.77675
-6.25551
-5.83681
-5.47233
-5.15782
-4.88277
-4.63794
-4.43135
-4.25842
-4.11071
-3.98783
-3.87668
-3.75815
-3.62783
-3.50033
-3.3818
-3.27278
-3.17748
-3.09361
-3.01756
-2.95059
-2.89153
-2.84043
-2.80176
-2.77495
-2.75505
-2.73815
-2.72363
-2.71055
-2.69817
-2.6871
-2.67704
-2.66745
-2.65845
-2.64898
-2.63746
-2.62373
-2.60942
-2.59528
-2.58159
-2.5691
-2.55803
-2.54852
-2.54158
-2.53716
-2.53531
-26.7261
-26.7442
-26.7564
-26.706
-26.4907
-25.9504
-24.8878
-23.1766
-20.9705
-18.7301
-16.6248
-14.6755
-12.9892
-11.5164
-10.1809
-9.02167
-8.0016
-7.10512
-6.42672
-5.94937
-5.57381
-5.23474
-4.94445
-4.69055
-4.45888
-4.2694
-4.11524
-3.98372
-3.88159
-3.79167
-3.68492
-3.55518
-3.429
-3.31336
-3.20615
-3.11532
-3.03655
-2.9636
-2.90022
-2.84394
-2.79407
-2.75908
-2.73828
-2.72413
-2.71134
-2.7005
-2.6905
-2.6803
-2.67146
-2.66349
-2.65561
-2.64857
-2.64093
-2.63022
-2.61612
-2.60146
-2.58699
-2.57273
-2.55984
-2.54836
-2.53822
-2.53099
-2.52663
-2.52494
-27.1476
-27.197
-27.2725
-27.3162
-27.215
-26.7739
-25.7209
-23.8377
-21.3003
-18.8261
-16.5707
-14.4804
-12.7394
-11.2461
-9.86515
-8.69359
-7.65964
-6.72098
-6.05575
-5.63816
-5.31561
-4.99868
-4.7338
-4.50265
-4.28002
-4.10812
-3.97418
-3.85698
-3.77776
-3.71335
-3.61898
-3.48503
-3.35888
-3.24634
-3.13945
-3.05367
-2.9809
-2.91025
-2.85073
-2.79724
-2.74704
-2.71568
-2.70199
-2.69428
-2.68533
-2.67819
-2.67134
-2.66295
-2.65631
-2.6505
-2.64411
-2.6392
-2.63376
-2.62387
-2.60892
-2.59378
-2.579
-2.56398
-2.55071
-2.53882
-2.52784
-2.5203
-2.51611
-2.51467
-27.5427
-27.6258
-27.7714
-27.9237
-27.9639
-27.6623
-26.6542
-24.5774
-21.6058
-18.8821
-16.4916
-14.2363
-12.4596
-10.9689
-9.52866
-8.35705
-7.31672
-6.30863
-5.66021
-5.32477
-5.06763
-4.76435
-4.52677
-4.32149
-4.10062
-3.94762
-3.83648
-3.72951
-3.67603
-3.64335
-3.56239
-3.41667
-3.28957
-3.1813
-3.07219
-2.99256
-2.92729
-2.8574
-2.80238
-2.75201
-2.69896
-2.67125
-2.66628
-2.66591
-2.66014
-2.6568
-2.65325
-2.64606
-2.64168
-2.63815
-2.63286
-2.63031
-2.62763
-2.61862
-2.60207
-2.58636
-2.57138
-2.55531
-2.54175
-2.52953
-2.51736
-2.50948
-2.50563
-2.50458
-27.908
-28.0266
-28.2475
-28.5219
-28.7317
-28.6184
-27.7076
-25.4192
-21.8611
-18.8856
-16.3954
-13.9309
-12.1489
-10.6959
-9.16649
-8.01533
-6.98362
-5.86022
-5.23487
-5.01316
-4.83726
-4.53038
-4.3239
-4.1505
-3.91887
-3.78782
-3.70411
-3.59959
-3.57564
-3.58364
-3.51798
-3.34854
-3.22047
-3.1192
-3.00344
-2.93195
-2.8767
-2.80462
-2.75545
-2.70913
-2.64917
-2.62535
-2.63143
-2.63959
-2.6357
-2.63637
-2.6365
-2.62948
-2.62757
-2.62661
-2.62169
-2.62184
-2.62271
-2.61473
-2.59539
-2.57916
-2.56427
-2.54663
-2.53298
-2.52062
-2.50672
-2.49849
-2.49524
-2.49474
-28.241
-28.3959
-28.6956
-29.1031
-29.5108
-29.6429
-28.9044
-26.3985
-22.026
-18.8223
-16.2993
-13.5452
-11.8065
-10.445
-8.76824
-7.67199
-6.67729
-5.36302
-4.7726
-4.70871
-4.63479
-4.29291
-4.12535
-3.99489
-3.73129
-3.62849
-3.58032
-3.46432
-3.47527
-3.53666
-3.48974
-3.27776
-3.15073
-3.06177
-2.93165
-2.87177
-2.83061
-2.75103
-2.71018
-2.66998
-2.59662
-2.57736
-2.59782
-2.61607
-2.61172
-2.61693
-2.62147
-2.61295
-2.61395
-2.61614
-2.61034
-2.61366
-2.61925
-2.61258
-2.5886
-2.5721
-2.55786
-2.5378
-2.52444
-2.51231
-2.49581
-2.48728
-2.48499
-2.48523
-28.5399
-28.7308
-29.1106
-29.659
-30.2908
-30.7326
-30.2715
-27.5692
-22.0379
-18.6762
-16.2357
-13.049
-11.4314
-10.244
-8.31469
-7.33077
-6.42398
-4.79676
-4.26432
-4.41866
-4.47463
-4.04406
-3.93082
-3.86269
-3.5318
-3.46926
-3.47038
-3.31908
-3.373
-3.50534
-3.48345
-3.1995
-3.07928
-3.01199
-2.85422
-2.81188
-2.79135
-2.69496
-2.66684
-2.6367
-2.5396
-2.5265
-2.56598
-2.59643
-2.58762
-2.59844
-2.60875
-2.59598
-2.60081
-2.60714
-2.59836
-2.60558
-2.6175
-2.61273
-2.5812
-2.5651
-2.55249
-2.52854
-2.51616
-2.50491
-2.48445
-2.47575
-2.47494
-2.47616
-28.8038
-29.0294
-29.4881
-30.1812
-31.059
-31.8792
-31.8367
-29.0131
-21.8014
-18.4305
-16.2595
-12.3948
-11.0231
-10.1363
-7.77278
-6.99548
-6.26384
-4.12975
-3.69927
-4.15241
-4.37712
-3.76986
-3.73962
-3.76627
-3.31036
-3.30967
-3.38263
-3.15672
-3.26624
-3.49313
-3.50749
-3.10599
-3.00491
-2.97471
-2.76699
-2.75213
-2.7625
-2.63357
-2.62564
-2.61255
-2.47549
-2.47185
-2.53658
-2.58218
-2.56238
-2.58086
-2.59926
-2.57778
-2.58811
-2.60029
-2.58512
-2.59735
-2.61778
-2.61596
-2.5724
-2.55803
-2.54868
-2.51839
-2.50815
-2.4989
-2.47229
-2.46383
-2.46515
-2.46762
-29.0322
-29.2904
-29.8244
-30.6613
-31.8001
-33.0671
-33.6266
-30.8537
-21.1737
-18.0694
-16.4587
-11.508
-10.5815
-10.1874
-7.08862
-6.66996
-6.25713
-3.3134
-3.06594
-3.92162
-4.37094
-3.44738
-3.55082
-3.72451
-3.05099
-3.14931
-3.32994
-2.96635
-3.15185
-3.50381
-3.57407
-2.98521
-2.92636
-2.95762
-2.66342
-2.69236
-2.74949
-2.56224
-2.58682
-2.60243
-2.40022
-2.41243
-2.51049
-2.57542
-2.53426
-2.56409
-2.59439
-2.55707
-2.57579
-2.59663
-2.56962
-2.58865
-2.62041
-2.62346
-2.56097
-2.55077
-2.54726
-2.5066
-2.50043
-2.49498
-2.45881
-2.45139
-2.4557
-2.45969
-29.2258
-29.5134
-30.1169
-31.0914
-32.4968
-34.2721
-35.6595
-33.2755
-19.9444
-17.5801
-16.9679
-10.2747
-10.1077
-10.4948
-6.17797
-6.35802
-6.49263
-2.27446
-2.35405
-3.73983
-4.49649
-3.04084
-3.36351
-3.7656
-2.72912
-2.98803
-3.33157
-2.73174
-3.02649
-3.54113
-3.7009
-2.81904
-2.84258
-2.97238
-2.53347
-2.63249
-2.76042
-2.47378
-2.55055
-2.6136
-2.30773
-2.34734
-2.48872
-2.57913
-2.50061
-2.54801
-2.5962
-2.53193
-2.56381
-2.59771
-2.5504
-2.57912
-2.6257
-2.63691
-2.54505
-2.54319
-2.54946
-2.49203
-2.49299
-2.49416
-2.44319
-2.43836
-2.4467
-2.45248
-29.3854
-29.6988
-30.3638
-31.4648
-33.1309
-35.4594
-37.9367
-36.5505
-17.8089
-16.9575
-17.9863
-8.52383
-9.60565
-11.2001
-4.91361
-6.06361
-7.09863
-0.90448
-1.55803
-3.62116
-4.81032
-2.49653
-3.17736
-3.93076
-2.30795
-2.82629
-3.41563
-2.42904
-2.88724
-3.60807
-3.91343
-2.58089
-2.75306
-3.03621
-2.36209
-2.57266
-2.80713
-2.35738
-2.51706
-2.65653
-2.189
-2.27609
-2.47235
-2.59745
-2.4574
-2.53255
-2.60776
-2.49945
-2.55215
-2.60583
-2.52534
-2.56842
-2.63386
-2.65879
-2.52193
-2.5352
-2.55712
-2.47297
-2.48585
-2.49792
-2.4242
-2.4247
-2.43826
-2.44605
-29.5128
-29.8476
-30.5648
-31.7764
-33.6842
-36.584
-40.4272
-41.0726
-14.3342
-16.2101
-19.7994
-6.0051
-9.08387
-12.5054
-3.10923
-5.79122
-8.25681
0.954154
-0.682766
-3.57794
-5.39105
-1.73634
-2.99341
-4.2789
-1.73375
-2.66578
-3.62211
-2.02382
-2.73284
-3.70555
-4.24786
-2.23266
-2.65842
-3.17381
-2.12731
-2.51344
-2.90652
-2.19723
-2.4866
-2.74612
-2.03097
-2.19907
-2.46235
-2.63616
-2.39879
-2.51769
-2.63345
-2.45545
-2.54087
-2.62427
-2.49142
-2.55632
-2.64487
-2.69262
-2.48775
-2.5268
-2.57288
-2.44691
-2.47902
-2.50832
-2.40004
-2.41052
-2.43056
-2.44049
-29.6098
-29.9616
-30.7206
-32.023
-34.1405
-37.5911
-43.0473
-47.4033
-8.91537
-15.368
-22.8059
-2.36054
-8.55909
-14.6922
-0.499231
-5.5465
-10.2195
3.52631
0.247939
-3.61635
-6.34707
-0.649697
-2.81521
-4.89232
-0.92995
-2.5103
-4.00659
-1.46722
-2.56554
-3.83058
-4.75501
-1.72081
-2.56111
-3.41967
-1.79779
-2.45614
-3.0822
-1.97086
-2.45955
-2.90309
-1.81506
-2.11822
-2.45929
-2.70321
-2.31657
-2.50361
-2.67943
-2.39398
-2.53012
-2.65765
-2.44441
-2.54291
-2.65833
-2.74338
-2.4371
-2.51815
-2.60045
-2.41033
-2.47259
-2.52825
-2.36813
-2.39616
-2.42378
-2.43584
-29.6789
-30.0431
-30.8328
-32.2038
-34.4871
-38.4203
-45.6319
-56.3282
-0.721858
-14.4942
-27.5487
2.9099
-8.06079
-18.1453
3.28565
-5.33746
-13.3306
7.12683
1.1792
-3.72983
-7.82619
0.916218
-2.65045
-5.88355
0.210099
-2.367
-4.64459
-0.69112
-2.39393
-3.97334
-5.50522
-0.971651
-2.46656
-3.82088
-1.3298
-2.40335
-3.36651
-1.64709
-2.4366
-3.15572
-1.51525
-2.0381
-2.46282
-2.80949
-2.19941
-2.49077
-2.75419
-2.30685
-2.52029
-2.7123
-2.37845
-2.5288
-2.67317
-2.81805
-2.36261
-2.50967
-2.64496
-2.35832
-2.46677
-2.56167
-2.32488
-2.38235
-2.41817
-2.43219
-29.7224
-30.0945
-30.9042
-32.3203
-34.7168
-39.0121
-47.8963
-68.9269
11.3664
-13.6999
-34.7511
10.4892
-7.6376
-23.3792
8.74699
-5.17607
-18.0497
12.1884
2.0086
-3.88941
-10.0278
3.16807
-2.51304
-7.40314
1.83173
-2.24805
-5.63663
0.397775
-2.23681
-4.11333
-6.59443
0.114311
-2.38448
-4.44019
-0.66375
-2.35948
-3.80278
-1.18366
-2.41889
-3.54189
-1.09589
-1.96723
-2.47101
-2.96972
-2.03205
-2.48011
-2.86919
-2.18297
-2.51213
-2.79672
-2.28562
-2.51557
-2.68732
-2.92618
-2.25437
-2.5022
-2.71332
-2.28432
-2.46194
-2.61392
-2.26538
-2.37042
-2.41401
-2.42959
-29.743
-30.119
-30.9383
-32.3763
-34.8293
-39.32
-49.3885
-86.6556
28.8342
-13.1622
-45.356
21.2898
-7.36553
-31.0686
16.5513
-5.08055
-24.9802
19.2946
2.56472
-4.03045
-13.2176
6.37969
-2.42577
-9.64855
4.12879
-2.17291
-7.11391
1.92492
-2.12853
-4.21425
-8.15149
1.66889
-2.33072
-5.35967
0.279795
-2.33176
-4.44796
-0.524585
-2.40842
-4.11151
-0.509061
-1.91999
-2.47944
-3.20368
-1.79451
-2.4734
-3.03965
-2.00775
-2.50699
-2.92225
-2.15549
-2.50629
-2.69735
-3.08083
-2.09947
-2.49727
-2.81475
-2.17973
-2.45893
-2.69214
-2.1832
-2.36264
-2.41175
-2.42825
)
;

boundaryField
{
    left
    {
        type            calculated;
        value           nonuniform List<scalar> 
32
(
-20.3618
-20.4387
-20.5848
-20.7919
-21.053
-21.3615
-21.7115
-22.0975
-22.5138
-22.955
-23.4158
-23.8907
-24.374
-24.8603
-25.344
-25.8196
-26.2819
-26.7261
-27.1476
-27.5427
-27.908
-28.241
-28.5399
-28.8038
-29.0322
-29.2258
-29.3854
-29.5128
-29.6098
-29.6789
-29.7224
-29.743
)
;
    }
    right
    {
        type            calculated;
        value           nonuniform List<scalar> 
32
(
-2.65981
-2.65815
-2.655
-2.65056
-2.64502
-2.63853
-2.63124
-2.62327
-2.61472
-2.6057
-2.59629
-2.58656
-2.57658
-2.56641
-2.5561
-2.54572
-2.53531
-2.52494
-2.51467
-2.50458
-2.49474
-2.48523
-2.47616
-2.46762
-2.45969
-2.45248
-2.44605
-2.44049
-2.43584
-2.43219
-2.42959
-2.42825
)
;
    }
    interface
    {
        type            calculated;
        value           nonuniform List<scalar> 
64
(
-29.7479
-30.1248
-30.9465
-32.3898
-34.8567
-39.3984
-49.8729
-97.0109
39.1239
-12.9845
-51.6419
27.6254
-7.27878
-35.6225
21.1338
-5.05201
-29.0837
23.4423
2.74795
-4.08556
-15.0974
8.26431
-2.39818
-10.9806
5.47377
-2.14926
-7.99236
2.81599
-2.09205
-4.24924
-9.0654
2.58204
-2.31335
-5.90602
0.832236
-2.32304
-4.83085
-0.138197
-2.40531
-4.44926
-0.166944
-1.90451
-2.48299
-3.34193
-1.65537
-2.4713
-3.14091
-1.90525
-2.5054
-2.99691
-2.07962
-2.50315
-2.7008
-3.17166
-2.00854
-2.49569
-2.87506
-2.11858
-2.45801
-2.73878
-2.13552
-2.36014
-2.41115
-2.42794
)
;
    }
    bottom
    {
        type            calculated;
        value           nonuniform List<scalar> 
64
(
-20.3417
-20.2468
-20.0582
-19.778
-19.4098
-18.9588
-18.4315
-17.8365
-17.1835
-16.4835
-15.7485
-14.9903
-14.2208
-13.4509
-12.6906
-11.9484
-11.2315
-10.5454
-9.89428
-9.28085
-8.70658
-8.17193
-7.67647
-7.2191
-6.79824
-6.41194
-6.05807
-5.73438
-5.43858
-5.16849
-4.92197
-4.69708
-4.49199
-4.30507
-4.13483
-3.97992
-3.83914
-3.71137
-3.5956
-3.49087
-3.3963
-3.31105
-3.23432
-3.16537
-3.10347
-3.04796
-2.9982
-2.95362
-2.91368
-2.87789
-2.84584
-2.81714
-2.79148
-2.76858
-2.74821
-2.7302
-2.71441
-2.70073
-2.6891
-2.67945
-2.67175
-2.666
-2.66216
-2.66025
)
;
    }
    defaultFaces
    {
        type            empty;
    }
}


// ************************************************************************* //
