/*--------------------------------*- C++ -*----------------------------------*\
| =========                 |                                                 |
| \\      /  F ield         | OpenFOAM: The Open Source CFD Toolbox           |
|  \\    /   O peration     | Version:  5.x                                   |
|   \\  /    A nd           | Web:      www.OpenFOAM.org                      |
|    \\/     M anipulation  |                                                 |
\*---------------------------------------------------------------------------*/
FoamFile
{
    version     2.0;
    format      ascii;
    class       volScalarField;
    location    "5";
    object      gradTx;
}
// * * * * * * * * * * * * * * * * * * * * * * * * * * * * * * * * * * * * * //

dimensions      [0 -1 0 1 0 0 0];

internalField   nonuniform List<scalar> 
2048
(
0.0218084
0.0651781
0.107787
0.149059
0.188341
0.224909
0.258011
0.286925
0.311035
0.329898
0.343287
0.351214
0.35391
0.351792
0.345419
0.335439
0.322541
0.307413
0.290716
0.273048
0.254936
0.23682
0.219052
0.201902
0.185563
0.170161
0.155771
0.142419
0.130096
0.118767
0.108375
0.0988516
0.0901213
0.0821105
0.0747498
0.067977
0.0617387
0.0559899
0.0506933
0.0458186
0.0413406
0.0372377
0.0334909
0.0300817
0.0269915
0.0242008
0.0216885
0.0194324
0.0174094
0.0155953
0.013966
0.0124973
0.0111655
0.0099477
0.00882262
0.00777069
0.00677462
0.00581964
0.00489359
0.00398688
0.00309234
0.00220492
0.00132143
0.000440194
0.0646755
0.193314
0.319752
0.442305
0.55903
0.66776
0.766215
0.852202
0.923844
0.979793
1.01937
1.04261
1.05023
1.04351
1.02414
0.994064
0.955361
0.910096
0.860236
0.807571
0.753663
0.699815
0.647067
0.596207
0.547798
0.502207
0.459642
0.420177
0.383779
0.350334
0.31967
0.291576
0.265828
0.242204
0.220495
0.200517
0.182112
0.165147
0.149515
0.135124
0.121904
0.10979
0.0987289
0.0886657
0.0795466
0.0713137
0.063905
0.0572548
0.0512938
0.0459511
0.0411545
0.0368322
0.0329137
0.0293314
0.0260215
0.022926
0.0199936
0.0171804
0.0144506
0.0117761
0.00913566
0.00651482
0.00390441
0.0013005
0.106205
0.317511
0.525387
0.727134
0.919557
1.09902
1.26163
1.40361
1.52172
1.61365
1.67824
1.71559
1.72696
1.71455
1.68127
1.63041
1.56547
1.4899
1.40697
1.31966
1.23054
1.14173
1.05494
0.971417
0.892062
0.817446
0.747883
0.683471
0.624136
0.569673
0.519781
0.4741
0.432247
0.393848
0.358558
0.326072
0.296132
0.268525
0.243075
0.219641
0.198107
0.178375
0.160359
0.143974
0.129133
0.115743
0.103702
0.0929017
0.0832289
0.0745662
0.0667951
0.0597972
0.0534565
0.0476611
0.0423059
0.0372951
0.0325441
0.0279811
0.0235477
0.0191982
0.0148992
0.0106279
0.00636973
0.00212132
0.146679
0.438651
0.72627
1.00595
1.27329
1.52307
1.74964
1.94741
2.11158
2.2387
2.32714
2.37711
2.39053
2.37069
2.32182
2.24868
2.15626
2.04944
1.93284
1.81062
1.68634
1.56294
1.44271
1.32734
1.218
1.11541
1.01996
0.931742
0.850616
0.776263
0.708233
0.645998
0.589003
0.536715
0.488647
0.444378
0.403556
0.365892
0.331152
0.299149
0.269732
0.242776
0.218167
0.195796
0.175549
0.157296
0.1409
0.12621
0.113069
0.101313
0.0907795
0.0813034
0.0727237
0.0648847
0.0576399
0.050856
0.0444155
0.0382195
0.0321881
0.0262598
0.0203904
0.0145509
0.00872245
0.00290451
0.186253
0.557247
0.92339
1.28039
1.62265
1.94327
2.23453
2.48869
2.69906
2.8609
2.972
3.03282
3.04613
3.01651
2.94971
2.85212
2.73032
2.5907
2.43928
2.28141
2.12166
1.96373
1.81046
1.6639
1.52541
1.39583
1.27557
1.16468
1.06291
0.969825
0.884783
0.807067
0.735931
0.670668
0.610647
0.555333
0.504287
0.457153
0.413648
0.373546
0.336671
0.302876
0.272032
0.244011
0.218673
0.195859
0.175393
0.157083
0.140727
0.126118
0.113046
0.101302
0.0906796
0.080979
0.0720118
0.0636063
0.0556128
0.0479056
0.0403846
0.0329739
0.0256209
0.0182933
0.0109688
0.00365225
0.224967
0.673463
1.11718
1.55136
1.96925
2.36208
2.71967
3.03164
3.28892
3.48522
3.61775
3.68734
3.69789
3.65558
3.56795
3.44319
3.28958
3.11513
2.9273
2.7327
2.53689
2.34431
2.15826
1.98107
1.81423
1.65861
1.51459
1.38215
1.26092
1.15027
1.04938
0.957293
0.873043
0.795735
0.724593
0.658972
0.598354
0.542328
0.49057
0.442826
0.398902
0.358642
0.32191
0.288566
0.258451
0.231378
0.20713
0.185475
0.166165
0.148948
0.13357
0.119777
0.107317
0.0959451
0.08543
0.0755607
0.0661543
0.0570597
0.0481575
0.0393595
0.0306067
0.021867
0.013116
0.00436699
0.262742
0.787125
1.30754
1.81909
2.31395
2.78122
3.20774
3.57976
3.88526
4.11598
4.26856
4.34446
4.34912
4.29069
4.17881
4.02367
3.8354
3.62372
3.39758
3.1649
2.93226
2.7048
2.48618
2.2789
2.08449
1.90378
1.73705
1.58418
1.44467
1.31768
1.20213
1.09681
1.00049
0.912078
0.83064
0.755436
0.685883
0.621524
0.562007
0.507059
0.456476
0.410105
0.367815
0.329466
0.294883
0.263849
0.236109
0.211385
0.189384
0.169808
0.152359
0.136739
0.122651
0.109804
0.0979196
0.0867472
0.0760697
0.0657106
0.0555336
0.0454399
0.0353666
0.0252857
0.0151724
0.00505135
0.299389
0.897736
1.49388
2.08319
2.65691
3.20175
3.70082
4.13608
4.49168
4.75696
4.92799
5.0073
5.00239
4.92389
4.78389
4.59479
4.3687
4.11707
3.85046
3.57818
3.30786
3.04524
2.79429
2.5575
2.33632
2.13146
1.94308
1.77093
1.61433
1.47224
1.34326
1.22587
1.11855
1.01996
0.929041
0.844954
0.767075
0.69492
0.628114
0.566373
0.509497
0.457346
0.409809
0.366757
0.328005
0.293307
0.262363
0.234846
0.210415
0.188727
0.169441
0.152218
0.136714
0.12259
0.109519
0.0972049
0.0853971
0.0738942
0.0625446
0.0512418
0.0399216
0.0285643
0.0171464
0.00570804
0.334614
1.00449
1.67508
2.34264
2.99766
3.62413
4.20055
4.70331
5.11153
5.4116
5.59917
5.67841
5.65964
5.5566
5.38422
5.15731
4.88997
4.59547
4.28605
3.97253
3.66364
3.36566
3.08266
2.81701
2.56993
2.3419
2.13294
1.94264
1.77018
1.61424
1.47311
1.34485
1.22759
1.11975
1.02012
0.927816
0.842189
0.762743
0.689092
0.620946
0.558111
0.500481
0.447984
0.400516
0.357888
0.319816
0.285953
0.255916
0.229312
0.205755
0.184864
0.166259
0.149552
0.134351
0.120275
0.106981
0.0941814
0.081651
0.0692258
0.0567944
0.0442941
0.0317183
0.0190469
0.00633962
0.368028
1.10629
1.8496
2.59581
3.33506
4.04828
4.70824
5.28398
5.74803
6.08311
6.2848
6.35982
6.32224
6.18969
5.98037
5.71158
5.39945
5.05899
4.70426
4.34778
3.99945
3.66601
3.35141
3.05768
2.78563
2.53544
2.30696
2.09964
1.91252
1.74405
1.59208
1.45418
1.32805
1.21186
1.10426
1.00436
0.911522
0.825261
0.745181
0.670986
0.602498
0.539656
0.482458
0.430844
0.384621
0.343464
0.306965
0.274676
0.246151
0.220961
0.198688
0.178917
0.161218
0.145142
0.130246
0.116131
0.102472
0.0890249
0.0756144
0.0621279
0.0485068
0.0347631
0.0208822
0.00694839
0.399153
1.20177
2.01541
2.84049
3.66733
4.47359
5.22486
5.88056
6.40439
6.77459
6.98732
7.05307
6.99099
6.82351
6.57244
6.25766
5.89713
5.50754
5.10485
4.70361
4.31507
3.94626
3.60071
3.27982
2.98381
2.7125
2.46554
2.24232
2.04176
1.86208
1.70065
1.55439
1.42046
1.29676
1.18188
1.07495
0.975396
0.882762
0.796643
0.71673
0.642857
0.575032
0.513359
0.457852
0.408311
0.364357
0.325501
0.291223
0.26102
0.234422
0.210982
0.190256
0.171774
0.155025
0.139491
0.124711
0.110322
0.0960618
0.0817488
0.0672731
0.0525824
0.0377135
0.0226596
0.00753614
0.427446
1.28936
2.1701
3.07388
3.99204
4.8989
5.75123
6.49566
7.08401
7.48909
7.70882
7.75925
7.66615
7.45787
7.16018
6.79534
6.38289
5.9409
5.48743
5.03959
4.61024
4.2064
3.83078
3.48383
3.16499
2.87359
2.60917
2.3711
2.1583
1.96879
1.79935
1.64604
1.50538
1.37497
1.25342
1.13996
1.03414
0.935549
0.84376
0.758435
0.679407
0.606782
0.540826
0.481661
0.429078
0.382611
0.341678
0.305669
0.27402
0.246226
0.22182
0.20034
0.181282
0.164064
0.148076
0.132783
0.117786
0.102808
0.087667
0.0722605
0.0565427
0.0405827
0.024385
0.00810395
0.452312
1.36729
2.31091
3.29261
4.30605
5.32247
6.28794
7.13213
7.7906
8.22967
8.45113
8.47894
8.34742
8.09215
7.743
7.32423
6.85655
6.35888
5.85155
5.35518
4.88462
4.44645
4.04193
3.67024
3.32976
3.01931
2.73838
2.48645
2.26254
2.06463
1.88876
1.72979
1.58341
1.44703
1.31933
1.19976
1.08809
0.983928
0.886819
0.79637
0.712382
0.635082
0.564993
0.502395
0.447045
0.398356
0.355624
0.318135
0.285258
0.256465
0.231279
0.209233
0.189804
0.172328
0.156071
0.14041
0.124917
0.109308
0.0934057
0.0771198
0.0604088
0.0433823
0.0260625
0.00865196
0.47314
1.43373
2.43481
3.49279
4.60551
5.74192
6.83549
7.79329
8.52833
8.99941
9.21575
9.21222
9.0339
8.72526
8.32003
7.84383
7.31799
6.76131
6.19666
5.64967
5.13785
4.66649
4.23458
3.83968
3.47884
3.15031
2.85375
2.58883
2.35489
2.15006
1.96948
1.80633
1.65521
1.51349
1.38007
1.25473
1.13755
1.0282
0.926115
0.830822
0.742025
0.660106
0.585986
0.520173
0.462344
0.411728
0.367478
0.328752
0.294849
0.265237
0.239435
0.216997
0.197401
0.179885
0.163547
0.147657
0.13177
0.115605
0.0989993
0.0818794
0.0642009
0.0461218
0.0276931
0.00917904
0.489326
1.48681
2.53858
3.67006
4.88574
6.1541
7.39422
8.48314
9.30208
9.80137
10.0038
9.95864
9.72407
9.35566
8.89019
8.35355
7.76723
7.14822
6.52212
5.9222
5.36954
4.86673
4.40925
3.9929
3.61307
3.26732
2.95591
2.67873
2.43567
2.22548
2.04217
1.87641
1.72145
1.57491
1.43607
1.30519
1.18284
1.06866
0.961939
0.86209
0.768595
0.682021
0.603914
0.53511
0.475108
0.422869
0.377386
0.337656
0.302911
0.272638
0.246365
0.223687
0.204127
0.186807
0.17058
0.154586
0.138395
0.121741
0.104479
0.0865667
0.0679386
0.0488074
0.0292744
0.00968246
0.500317
1.52474
2.61897
3.81966
5.14128
6.55494
7.96428
9.20666
10.1176
10.6385
10.8159
10.7172
10.4157
9.98145
9.45225
8.85274
8.20457
7.5199
6.82716
6.17165
5.57933
5.04749
4.56655
4.1308
3.73337
3.3711
3.04551
2.75664
2.50516
2.29126
2.10754
1.94087
1.7828
1.63182
1.48775
1.35142
1.22421
1.10559
0.994574
0.89049
0.792368
0.700977
0.618859
0.547313
0.485478
0.431926
0.385498
0.344993
0.309562
0.27877
0.252141
0.229345
0.210028
0.193168
0.177251
0.161259
0.144839
0.127752
0.109871
0.0912082
0.0716422
0.0514424
0.030799
0.0101575
0.505639
1.54594
2.67283
3.93655
5.36576
6.93917
8.54553
9.97022
10.9818
11.5132
11.6523
11.4865
11.1058
10.6004
10.0049
9.34063
8.63068
7.87708
7.11082
6.39654
5.76688
5.20935
4.70722
4.2544
3.84081
3.46242
3.12327
2.82306
2.56349
2.34765
2.16637
2.00067
1.83995
1.68476
1.5355
1.39366
1.26193
1.13927
1.02428
0.916361
0.813648
0.717099
0.630866
0.556882
0.493604
0.439046
0.391976
0.350911
0.314919
0.283733
0.256836
0.234003
0.21514
0.199046
0.183646
0.167732
0.151147
0.13367
0.115196
0.0958301
0.0753339
0.0540258
0.0322537
0.0105969
0.504938
1.5491
2.6973
4.0156
5.55193
7.30008
9.13728
10.7821
11.9031
12.4273
12.5124
12.2645
11.7905
11.2101
10.5471
9.81621
9.0468
8.22114
7.3718
6.59487
5.93197
5.35318
4.83199
4.36485
3.9366
3.542
3.18993
2.87854
2.61064
2.39474
2.21955
2.05688
1.89351
1.73421
1.57969
1.43206
1.2962
1.16997
1.0513
0.940073
0.832781
0.730478
0.639925
0.563916
0.49965
0.444374
0.396981
0.355566
0.31909
0.28763
0.260521
0.237671
0.219481
0.204528
0.189862
0.174054
0.157357
0.139525
0.120465
0.100459
0.0790406
0.0565521
0.0336171
0.0109904
0.498005
1.53333
2.68996
4.05174
5.69167
7.62909
9.73796
11.6532
12.8921
13.3808
13.3951
13.0495
12.4644
11.8081
11.0778
10.278
9.45491
8.55446
7.60829
6.76391
6.07465
5.48032
4.94154
4.46344
4.02212
3.61043
3.24633
2.92375
2.64633
2.43242
2.26815
2.11076
1.94399
1.78064
1.62072
1.46667
1.32723
1.19795
1.07579
0.962038
0.850176
0.741147
0.64596
0.56852
0.503807
0.448043
0.400687
0.359125
0.322171
0.29057
0.263275
0.240336
0.223046
0.209719
0.196013
0.180261
0.163501
0.145344
0.125676
0.105125
0.0827976
0.0590093
0.0348585
0.0113245
0.484804
1.4982
2.64904
4.04029
5.77613
7.91536
10.3444
12.598
13.9618
14.3711
14.2987
13.8397
13.1207
12.3922
11.5968
10.7234
9.85797
8.88076
7.81762
6.89992
6.19539
5.59273
5.03627
4.55166
4.09901
3.668
3.2934
2.95951
2.66996
2.46025
2.3135
2.16384
1.99171
1.82449
1.65898
1.49734
1.35523
1.22354
1.09782
0.982731
0.866342
0.749063
0.648796
0.570818
0.506301
0.450161
0.403273
0.361765
0.324233
0.292668
0.265187
0.241949
0.2258
0.214744
0.202234
0.186361
0.16961
0.151156
0.130808
0.109862
0.0866534
0.0613771
0.0359355
0.0115814
0.465478
1.44385
2.57359
3.97722
5.79592
8.14528
10.9509
13.636
15.1292
15.3909
15.2213
14.6347
13.7497
12.9608
12.105
11.1481
10.2603
9.20578
7.99582
6.99776
6.29545
5.69324
5.11599
4.63119
4.16926
3.71453
3.33227
2.98702
2.6805
2.47734
2.35731
2.218
2.0366
1.86616
1.69498
1.52373
1.38044
1.24711
1.11728
1.00272
0.881938
0.754061
0.648139
0.57098
0.507421
0.450787
0.404931
0.363688
0.3253
0.294056
0.266374
0.242418
0.227664
0.219768
0.208691
0.192327
0.175712
0.156997
0.135812
0.114712
0.0906771
0.0636228
0.0367916
0.0117399
0.440353
1.37096
2.46358
3.85948
5.7415
8.30205
11.5475
14.7935
16.4157
16.4258
16.1612
15.4361
14.3379
13.5139
12.6049
11.5447
10.6681
9.53809
8.13693
7.05042
6.37731
5.78592
5.17946
4.70409
4.23546
3.74901
3.36432
3.00796
2.67629
2.4822
2.40188
2.27562
2.07801
1.90613
1.72941
1.54511
1.40316
1.26916
1.13379
1.02269
0.897833
0.755806
0.643533
0.569255
0.507533
0.449895
0.405879
0.365132
0.325334
0.29489
0.266994
0.241594
0.228498
0.225012
0.215597
0.198066
0.181839
0.162919
0.140592
0.119732
0.0949683
0.0656959
0.0373545
0.0117746
0.409922
1.28079
2.32007
3.6854
5.60369
8.36536
12.1179
16.1056
17.8498
17.4501
17.1182
16.2498
14.8657
14.0535
13.102
11.9008
11.0902
9.89015
8.2321
7.04852
6.44526
5.87646
5.22358
4.77295
4.30101
3.76913
3.3914
3.02488
2.65487
2.47246
2.45031
2.33974
2.11437
1.94496
1.7633
1.5602
1.4239
1.29042
1.14651
1.04353
0.915205
0.753713
0.634325
0.566018
0.507124
0.44732
0.406371
0.366393
0.324182
0.295365
0.267272
0.239249
0.22808
0.230775
0.223228
0.203388
0.188043
0.169009
0.144986
0.125
0.0996688
0.0675184
0.0375347
0.0116575
0.374826
1.1751
2.14517
3.45498
5.37441
8.31132
12.6363
17.6198
19.4691
18.4219
18.0954
17.0874
15.3043
14.5856
13.6063
12.1962
11.5388
10.2798
8.26825
6.97961
6.50626
5.97276
5.24238
4.84128
4.37063
3.77055
3.41601
3.04145
2.61271
2.44463
2.50685
2.41434
2.14266
1.98351
1.79819
1.56691
1.44339
1.31197
1.15394
1.06639
0.935653
0.746845
0.619614
0.561834
0.506839
0.442677
0.406728
0.367857
0.321531
0.295734
0.267529
0.235057
0.226077
0.23747
0.231948
0.207955
0.194405
0.175402
0.148731
0.130628
0.10498
0.0689715
0.0372249
0.0113592
0.335815
1.0561
1.94203
3.17014
5.0476
8.11288
13.0623
19.3991
21.3239
19.2749
19.102
17.9704
15.6112
15.122
14.1342
12.399
12.0314
10.7319
8.22639
6.82752
6.57095
6.08568
5.22555
4.91399
4.45089
3.74595
3.44167
3.06303
2.54484
2.39366
2.57728
2.50463
2.15782
2.02316
1.83641
1.56194
1.46288
1.33538
1.15359
1.09282
0.961346
0.733766
0.598203
0.557539
0.507535
0.435254
0.407378
0.370045
0.316826
0.296341
0.268227
0.228564
0.222008
0.245659
0.24224
0.211216
0.20107
0.182321
0.151416
0.136781
0.111181
0.0698761
0.0363019
0.0108514
0.293714
0.926282
1.71472
2.83495
4.62026
7.74095
13.3356
21.5271
23.4817
19.9091
20.1572
18.9334
15.7238
15.6832
14.7111
12.4607
12.5925
11.2809
8.07937
6.57164
6.65493
6.22991
5.15642
4.99818
4.55103
3.68369
3.4734
3.09716
2.44446
2.31256
2.66941
2.61748
2.15181
2.06611
1.88143
1.54023
1.48426
1.36302
1.14156
1.12493
0.995208
0.712364
0.568553
0.554334
0.510354
0.423862
0.408914
0.373673
0.309162
0.297657
0.270011
0.219154
0.215196
0.256107
0.254751
0.212314
0.20828
0.190105
0.152422
0.143698
0.118655
0.0699653
0.034631
0.01011
0.249377
0.788368
1.46804
2.45559
4.09356
7.16654
13.3673
24.1136
26.0339
20.1779
21.2965
20.0299
15.5514
16.3022
15.3759
12.3092
13.2568
11.973
7.78903
6.18629
6.78018
6.42517
5.00939
5.10423
4.68394
3.56606
3.51842
3.15424
2.30243
2.19179
2.79366
2.76198
2.11246
2.11594
1.93833
1.49425
1.51049
1.3983
1.11195
1.16563
1.04113
0.679606
0.528743
0.553901
0.516808
0.406644
0.412175
0.37973
0.297147
0.300342
0.27377
0.206007
0.204716
0.269834
0.270349
0.209967
0.21643
0.199267
0.150833
0.151729
0.127919
0.0688481
0.032076
0.00911923
0.203651
0.645111
1.20729
2.04021
3.47389
6.36437
13.0302
27.3005
29.1032
19.871
22.5787
21.3381
14.9637
17.0298
16.1847
11.8396
14.0724
12.8693
7.30271
5.6402
6.97667
6.69766
4.74667
5.24731
4.86744
3.36705
3.58708
3.24825
2.10669
2.0187
2.9637
2.95011
2.02205
2.17823
2.01428
1.41306
1.54595
1.44613
1.05614
1.21896
1.1042
0.631249
0.476443
0.55852
0.528888
0.380825
0.418363
0.389576
0.278722
0.305315
0.280695
0.188061
0.189324
0.288183
0.290189
0.202316
0.226137
0.21055
0.145336
0.161384
0.139651
0.0659626
0.0285144
0.00787601
0.157337
0.499192
0.937955
1.59857
2.77362
5.31817
12.1455
31.2697
32.854
18.6948
24.0969
22.9687
13.7776
17.9407
17.2168
10.9044
15.1064
14.049
6.54901
4.89628
7.28401
7.08185
4.31417
5.44923
5.12576
3.04954
3.69406
3.39749
1.84163
1.7768
3.19718
3.19763
1.85542
2.26148
2.11923
1.28116
1.59707
1.51332
0.9619
1.29049
1.191
0.561486
0.408916
0.571195
0.549194
0.342414
0.429183
0.405057
0.250942
0.313856
0.292346
0.163958
0.16739
0.312889
0.315807
0.186739
0.238338
0.225002
0.13408
0.173389
0.154731
0.0605165
0.0238618
0.0063942
0.111163
0.353101
0.665417
1.14145
2.01139
4.02818
10.4682
36.2512
37.5052
16.2476
25.9901
25.0731
11.7406
19.1422
18.5817
9.29912
16.4507
15.6126
5.43298
3.91173
7.753
7.62269
3.63674
5.74094
5.49128
2.56199
3.85999
3.62535
1.48735
1.44508
3.51645
3.52511
1.57789
2.37817
2.26664
1.077
1.67298
1.60919
0.812288
1.38783
1.30983
0.46253
0.323058
0.595774
0.581104
0.285836
0.447026
0.428648
0.209703
0.327729
0.310713
0.131996
0.136811
0.346154
0.349229
0.159628
0.254399
0.244063
0.114519
0.18877
0.174277
0.0514154
0.0181065
0.00470796
0.0657623
0.209044
0.394691
0.679969
1.2116
2.52114
7.66847
42.5314
43.3447
11.9908
28.4595
27.853
8.51089
20.7834
20.4261
6.74807
18.2303
17.6854
3.83046
2.63872
8.44702
8.37826
2.61243
6.16542
6.00649
1.83441
4.11343
3.96092
1.01901
0.997204
3.94928
3.95919
1.14264
2.54612
2.47426
0.771383
1.78636
1.74619
0.584372
1.52131
1.47102
0.324142
0.215472
0.637045
0.628966
0.203514
0.475189
0.463607
0.149436
0.349343
0.338273
0.0900847
0.0949248
0.390715
0.393101
0.11612
0.276258
0.269656
0.0832202
0.208952
0.199681
0.0371783
0.0113556
0.00287304
0.0216639
0.0688866
0.130178
0.224735
0.40281
0.863046
3.31123
50.4617
50.7474
5.21669
31.7862
31.5705
3.63512
23.0669
22.9429
2.88621
20.6119
20.4201
1.58214
1.02565
9.44294
9.42286
1.10609
6.78119
6.72605
0.773954
4.49325
4.43951
0.406068
0.400787
4.52952
4.53408
0.487844
2.79015
2.76501
0.325481
1.95444
1.9406
0.247775
1.70477
1.68717
0.133113
0.0826145
0.700801
0.698329
0.0853802
0.518133
0.514141
0.0627419
0.381939
0.378032
0.0357019
0.0384221
0.449913
0.450849
0.049802
0.306589
0.304293
0.0356454
0.235875
0.232648
0.0158416
0.00389656
0.000964856
)
;

boundaryField
{
    left
    {
        type            calculated;
        value           uniform 0;
    }
    right
    {
        type            calculated;
        value           uniform 0;
    }
    interface
    {
        type            calculated;
        value           nonuniform List<scalar> 
64
(
0.0216639
0.0688866
0.130178
0.224735
0.40281
0.863046
3.31123
50.4617
50.7474
5.21669
31.7862
31.5705
3.63512
23.0669
22.9429
2.88621
20.6119
20.4201
1.58214
1.02565
9.44294
9.42286
1.10609
6.78119
6.72605
0.773954
4.49325
4.43951
0.406068
0.400787
4.52952
4.53408
0.487844
2.79015
2.76501
0.325481
1.95444
1.9406
0.247775
1.70477
1.68717
0.133113
0.0826145
0.700801
0.698329
0.0853802
0.518133
0.514141
0.0627419
0.381939
0.378032
0.0357019
0.0384221
0.449913
0.450849
0.049802
0.306589
0.304293
0.0356454
0.235875
0.232648
0.0158416
0.00389656
0.000964856
)
;
    }
    bottom
    {
        type            calculated;
        value           nonuniform List<scalar> 
64
(
0.0218084
0.0651781
0.107787
0.149059
0.188341
0.224909
0.258011
0.286925
0.311035
0.329898
0.343287
0.351214
0.35391
0.351792
0.345419
0.335439
0.322541
0.307413
0.290716
0.273048
0.254936
0.23682
0.219052
0.201902
0.185563
0.170161
0.155771
0.142419
0.130096
0.118767
0.108375
0.0988516
0.0901213
0.0821105
0.0747498
0.067977
0.0617387
0.0559899
0.0506933
0.0458186
0.0413406
0.0372377
0.0334909
0.0300817
0.0269915
0.0242008
0.0216885
0.0194324
0.0174094
0.0155953
0.013966
0.0124973
0.0111655
0.0099477
0.00882262
0.00777069
0.00677462
0.00581964
0.00489359
0.00398688
0.00309234
0.00220492
0.00132143
0.000440194
)
;
    }
    defaultFaces
    {
        type            empty;
    }
}


// ************************************************************************* //
