/*--------------------------------*- C++ -*----------------------------------*\
| =========                 |                                                 |
| \\      /  F ield         | OpenFOAM: The Open Source CFD Toolbox           |
|  \\    /   O peration     | Version:  5.x                                   |
|   \\  /    A nd           | Web:      www.OpenFOAM.org                      |
|    \\/     M anipulation  |                                                 |
\*---------------------------------------------------------------------------*/
FoamFile
{
    version     2.0;
    format      ascii;
    class       volScalarField;
    location    "5";
    object      T;
}
// * * * * * * * * * * * * * * * * * * * * * * * * * * * * * * * * * * * * * //

dimensions      [0 0 0 1 0 0 0];

internalField   nonuniform List<scalar> 
2048
(
9.85386
9.85454
9.8559
9.85791
9.86055
9.8638
9.86758
9.87186
9.87655
9.88158
9.88686
9.89231
9.89783
9.90337
9.90883
9.91416
9.91931
9.92424
9.92892
9.93332
9.93745
9.94129
9.94485
9.94814
9.95116
9.95393
9.95648
9.9588
9.96093
9.96287
9.96464
9.96625
9.96773
9.96907
9.97029
9.97141
9.97242
9.97334
9.97417
9.97492
9.9756
9.97621
9.97676
9.97726
9.9777
9.9781
9.97846
9.97878
9.97907
9.97932
9.97955
9.97976
9.97995
9.98011
9.98026
9.98039
9.9805
9.9806
9.98068
9.98075
9.98081
9.98085
9.98087
9.98089
9.56741
9.56943
9.57345
9.57942
9.58727
9.59689
9.60814
9.62083
9.63477
9.6497
9.66539
9.68156
9.69797
9.71438
9.73058
9.74638
9.76164
9.77624
9.79008
9.80312
9.81532
9.82667
9.83719
9.84689
9.85582
9.86401
9.87151
9.87838
9.88465
9.89037
9.89559
9.90036
9.90471
9.90867
9.91227
9.91556
9.91854
9.92125
9.9237
9.92592
9.92792
9.92973
9.93135
9.93281
9.93413
9.9353
9.93635
9.9373
9.93814
9.9389
9.93958
9.94019
9.94073
9.94122
9.94165
9.94203
9.94236
9.94265
9.9429
9.9431
9.94327
9.94339
9.94347
9.94351
9.29195
9.29527
9.30188
9.31169
9.3246
9.34043
9.35894
9.37985
9.40281
9.42741
9.45323
9.47985
9.50684
9.53382
9.56042
9.58636
9.61137
9.63528
9.65793
9.67925
9.69917
9.7177
9.73485
9.75067
9.76521
9.77855
9.79075
9.80192
9.81211
9.82142
9.82992
9.83766
9.84473
9.85117
9.85704
9.86238
9.86723
9.87163
9.87562
9.87923
9.88248
9.88542
9.88806
9.89043
9.89256
9.89447
9.89617
9.89771
9.89908
9.90031
9.90141
9.90239
9.90328
9.90406
9.90477
9.90539
9.90593
9.9064
9.90681
9.90714
9.90741
9.90761
9.90774
9.9078
9.02625
9.03084
9.03996
9.05353
9.0714
9.09332
9.11899
9.148
9.17985
9.21399
9.24981
9.28671
9.32409
9.36141
9.39818
9.43397
9.46845
9.50135
9.53249
9.56175
9.58908
9.61445
9.63792
9.65954
9.6794
9.6976
9.71425
9.72947
9.74337
9.75605
9.76763
9.77819
9.78782
9.79659
9.80459
9.81186
9.81848
9.82447
9.82991
9.83482
9.83926
9.84325
9.84684
9.85007
9.85296
9.85556
9.85788
9.85996
9.86182
9.86349
9.86499
9.86633
9.86753
9.8686
9.86956
9.8704
9.87115
9.87179
9.87234
9.8728
9.87316
9.87343
9.87362
9.87371
8.76927
8.77509
8.78669
8.80395
8.8267
8.85466
8.88743
8.92449
8.9652
9.00883
9.0546
9.10171
9.14938
9.1969
9.24364
9.28908
9.33277
9.3744
9.41373
9.45063
9.48503
9.51693
9.54639
9.57351
9.59839
9.62118
9.64201
9.66104
9.67841
9.69425
9.70871
9.7219
9.73393
9.7449
9.75489
9.76398
9.77225
9.77974
9.78653
9.79267
9.7982
9.80319
9.80767
9.81169
9.81529
9.81852
9.82142
9.824
9.82632
9.8284
9.83027
9.83194
9.83343
9.83477
9.83596
9.83702
9.83795
9.83876
9.83945
9.84002
9.84048
9.84082
9.84105
9.84116
8.52017
8.5272
8.54121
8.56211
8.58969
8.62365
8.66351
8.70864
8.75825
8.81142
8.86716
8.92447
8.98239
9.04003
9.09663
9.15153
9.20423
9.25433
9.30158
9.34581
9.38697
9.42509
9.46023
9.49253
9.52214
9.54923
9.57397
9.59656
9.61716
9.63596
9.65311
9.66875
9.68303
9.69604
9.70789
9.71868
9.72849
9.73738
9.74543
9.75271
9.75927
9.76518
9.77048
9.77524
9.7795
9.78331
9.78673
9.78978
9.79252
9.79498
9.79718
9.79915
9.80092
9.8025
9.80392
9.80517
9.80628
9.80724
9.80806
9.80875
9.80929
9.8097
9.80998
9.81011
8.27824
8.28645
8.30284
8.32731
8.35969
8.39962
8.4466
8.49987
8.55847
8.62128
8.68709
8.75467
8.82286
8.89058
8.95694
9.02117
9.08268
9.14103
9.19592
9.2472
9.29482
9.33883
9.37935
9.41653
9.45056
9.48167
9.51006
9.53595
9.55956
9.5811
9.60074
9.61866
9.63502
9.64993
9.66352
9.67589
9.68713
9.69732
9.70655
9.71488
9.72239
9.72915
9.73521
9.74064
9.7455
9.74986
9.75375
9.75723
9.76036
9.76315
9.76566
9.76791
9.76994
9.77175
9.77337
9.77481
9.77608
9.77718
9.77813
9.77892
9.77955
9.78003
9.78034
9.7805
8.04293
8.05228
8.07098
8.09896
8.13608
8.18199
8.23613
8.29764
8.36539
8.43801
8.51404
8.59201
8.67052
8.74833
8.82439
8.89783
8.96798
9.03435
9.09664
9.15468
9.20845
9.25805
9.30362
9.34537
9.38354
9.41838
9.45015
9.4791
9.50549
9.52955
9.5515
9.57153
9.58981
9.60648
9.62168
9.63551
9.64808
9.65949
9.6698
9.67911
9.6875
9.69504
9.70179
9.70784
9.71325
9.71809
9.72242
9.72629
9.72976
9.73287
9.73566
9.73816
9.74041
9.74243
9.74424
9.74586
9.74728
9.74852
9.74959
9.75048
9.75119
9.75173
9.75208
9.75226
7.81376
7.82422
7.84515
7.87657
7.91836
7.97024
8.03162
8.10151
8.17859
8.26125
8.34771
8.43622
8.52516
8.61308
8.6988
8.78134
8.85997
8.93415
9.00358
9.06809
9.12772
9.18258
9.23289
9.27891
9.32093
9.35922
9.39411
9.42588
9.45482
9.4812
9.50526
9.52723
9.54729
9.56559
9.58228
9.59747
9.61128
9.62379
9.63511
9.64532
9.65452
9.66277
9.67016
9.67677
9.68267
9.68795
9.69267
9.69689
9.70066
9.70405
9.70709
9.70983
9.71229
9.7145
9.71649
9.71826
9.71983
9.7212
9.72238
9.72337
9.72416
9.72475
9.72515
9.72535
7.5904
7.6019
7.62497
7.6597
7.70609
7.76392
7.8326
7.91105
7.99772
8.09068
8.18782
8.28708
8.38656
8.48465
8.57999
8.67153
8.75848
8.84027
8.91657
8.98728
9.05244
9.11226
9.167
9.21699
9.26256
9.30404
9.34179
9.37613
9.4074
9.4359
9.4619
9.48565
9.50735
9.52715
9.54522
9.56166
9.5766
9.59015
9.60239
9.61343
9.62336
9.63226
9.64022
9.64734
9.65369
9.65936
9.66442
9.66895
9.67301
9.67664
9.67991
9.68285
9.6855
9.68789
9.69004
9.69196
9.69367
9.69516
9.69645
9.69753
9.69839
9.69904
9.69948
9.69969
7.37255
7.38502
7.4101
7.448
7.49887
7.56261
7.63867
7.72589
7.82244
7.92602
8.03414
8.14438
8.25455
8.36284
8.46779
8.56823
8.66334
8.75252
8.83545
8.91205
8.98244
9.04689
9.10576
9.15941
9.20825
9.25266
9.29302
9.32971
9.36309
9.39351
9.42128
9.44666
9.46985
9.49105
9.51038
9.52798
9.54397
9.55846
9.57156
9.58336
9.59395
9.60344
9.61192
9.61949
9.62623
9.63225
9.63762
9.64242
9.64672
9.65058
9.65404
9.65717
9.65999
9.66254
9.66483
9.6669
9.66873
9.67034
9.67173
9.6729
9.67384
9.67454
9.67501
9.67525
7.16001
7.17337
7.2003
7.24118
7.29636
7.36594
7.44945
7.54566
7.65244
7.76704
7.88648
8.00794
8.12895
8.2475
8.36201
8.47126
8.57437
8.67073
8.76002
8.84221
8.91751
8.98628
9.04896
9.10599
9.15783
9.2049
9.24763
9.28643
9.32172
9.35388
9.38325
9.41011
9.43469
9.45715
9.47765
9.49632
9.51328
9.52864
9.54251
9.55501
9.56621
9.57624
9.58518
9.59314
9.60023
9.60655
9.61218
9.61722
9.62174
9.62579
9.62943
9.63272
9.63569
9.63838
9.64082
9.64301
9.64497
9.64669
9.64818
9.64943
9.65044
9.6512
9.65171
9.65196
6.95264
6.96677
6.99537
7.03899
7.09826
7.17355
7.26459
7.37005
7.48747
7.61351
7.74464
7.87761
8.00961
8.13846
8.26249
8.38043
8.49137
8.5947
8.69009
8.77756
8.85744
8.9302
8.99639
9.05651
9.11108
9.16057
9.20544
9.24614
9.28314
9.31685
9.34766
9.37587
9.40171
9.42535
9.44693
9.46658
9.48443
9.50059
9.51517
9.5283
9.54006
9.55056
9.55991
9.56822
9.57561
9.58219
9.58806
9.5933
9.598
9.60221
9.60601
9.60944
9.61255
9.61537
9.61794
9.62025
9.62232
9.62415
9.62574
9.62707
9.62815
9.62896
9.6295
9.62978
6.75034
6.76513
6.79514
6.84121
6.90429
6.98514
7.08373
7.19874
7.32727
7.46526
7.6085
7.75325
7.89638
8.03556
8.16905
8.29556
8.41417
8.52425
8.62546
8.71789
8.80201
8.87845
8.94784
9.01078
9.06783
9.11949
9.16627
9.20867
9.24718
9.28226
9.31436
9.34381
9.37081
9.39553
9.41811
9.43866
9.45732
9.47421
9.48945
9.50315
9.51541
9.52634
9.53604
9.54465
9.5523
9.5591
9.56516
9.57058
9.57544
9.5798
9.58373
9.58728
9.59051
9.59345
9.59613
9.59856
9.60074
9.60268
9.60436
9.60577
9.60691
9.60778
9.60836
9.60864
6.55307
6.56836
6.59953
6.64769
6.71422
6.80037
6.90654
7.03144
7.17163
7.32213
7.47793
7.63475
7.78913
7.93862
8.0815
8.21644
8.34255
8.45917
8.56593
8.66298
8.751
8.83078
8.90308
8.96857
9.02786
9.08148
9.12996
9.17385
9.21367
9.24997
9.28322
9.31379
9.34186
9.36758
9.39107
9.41246
9.43186
9.44942
9.46526
9.47948
9.4922
9.5035
9.51351
9.52237
9.53023
9.53722
9.54345
9.54901
9.554
9.55848
9.56252
9.56618
9.56951
9.57256
9.57535
9.57789
9.58018
9.58221
9.58398
9.58548
9.58669
9.5876
9.58821
9.58852
6.36081
6.37644
6.40846
6.45829
6.52782
6.61895
6.73266
6.86783
7.02037
7.18401
7.35282
7.52201
7.68774
7.8475
7.99966
8.14288
8.2763
8.39927
8.5113
8.61262
8.70416
8.78698
8.8619
8.92968
8.99099
9.04635
9.09633
9.14152
9.18248
9.21981
9.25408
9.28567
9.31473
9.34138
9.36573
9.38787
9.40796
9.42613
9.44251
9.45721
9.47034
9.48197
9.49224
9.50131
9.50935
9.51648
9.52284
9.52853
9.53362
9.5382
9.54234
9.54608
9.5495
9.55265
9.55554
9.55818
9.56058
9.56271
9.56457
9.56614
9.56742
9.56838
9.56903
9.56935
6.17358
6.18938
6.22189
6.2729
6.34491
6.44058
6.56175
6.70763
6.87332
7.05081
7.23311
7.41495
7.59206
7.76201
7.92333
8.07466
8.21522
8.34437
8.46138
8.56658
8.66127
8.7468
8.82406
8.8939
8.95701
9.01392
9.06521
9.11152
9.15343
9.19163
9.2268
9.25933
9.28932
9.31683
9.34197
9.36482
9.38552
9.40425
9.42112
9.43626
9.44976
9.46169
9.47217
9.4814
9.48957
9.49683
9.50329
9.50907
9.51426
9.51892
9.52312
9.52694
9.53044
9.53367
9.53666
9.5394
9.5419
9.54413
9.54608
9.54773
9.54907
9.55008
9.55076
9.55109
5.99141
6.00719
6.03982
6.09148
6.16531
6.26498
6.39344
6.55052
6.73038
6.92249
7.11873
7.3135
7.502
7.68196
7.85231
8.01155
8.15907
8.29427
8.41598
8.52464
8.62207
8.71001
8.78936
8.86101
8.92576
8.98403
9.03645
9.08371
9.1264
9.1653
9.20124
9.23466
9.26551
9.29383
9.31971
9.34319
9.36446
9.3837
9.40102
9.41655
9.4304
9.44258
9.45323
9.46258
9.47085
9.47819
9.48474
9.4906
9.49585
9.50057
9.50484
9.50871
9.51226
9.51557
9.51865
9.5215
9.52409
9.52642
9.52845
9.53018
9.53159
9.53265
9.53336
9.5337
5.81436
5.82993
5.86228
5.91399
5.9889
6.09185
6.2273
6.39616
6.59147
6.79904
7.00962
7.21764
7.41741
7.60715
7.78642
7.95333
8.1076
8.2488
8.37493
8.48656
8.5863
8.67639
8.75756
8.83081
8.89705
8.9565
9.00987
9.05795
9.10124
9.14065
9.17725
9.21153
9.24321
9.27228
9.29886
9.32293
9.34469
9.3644
9.38213
9.39802
9.41219
9.42459
9.43535
9.44478
9.45312
9.46052
9.46712
9.47304
9.47834
9.48311
9.48742
9.49134
9.49493
9.49831
9.50149
9.50443
9.50712
9.50954
9.51166
9.51347
9.51495
9.51606
9.51679
9.51715
5.64248
5.65763
5.6893
5.74042
5.81556
5.92092
6.06292
6.24418
6.4566
6.68049
6.9057
7.12733
7.33819
7.53735
7.72545
7.89975
8.06055
8.20781
8.33808
8.45211
8.5537
8.64572
8.72847
8.8031
8.87071
8.93119
8.98534
9.03411
9.07782
9.11755
9.15471
9.18985
9.22233
9.25209
9.27934
9.30393
9.32613
9.34628
9.36437
9.38059
9.39508
9.40766
9.41849
9.42794
9.43632
9.44376
9.45039
9.45636
9.4617
9.46649
9.47084
9.47478
9.4784
9.48184
9.48511
9.48816
9.49094
9.49346
9.49566
9.49754
9.4991
9.50025
9.50101
9.50138
5.47583
5.49038
5.52095
5.57081
5.64524
5.75193
5.89978
6.09414
6.32591
6.56693
6.80687
7.04259
7.26421
7.47227
7.66923
7.85055
8.01761
8.17119
8.30529
8.42106
8.52397
8.61779
8.70189
8.77767
8.84661
8.90795
8.96269
9.01209
9.05604
9.09585
9.13345
9.16952
9.20277
9.23316
9.26108
9.28613
9.3087
9.32927
9.34767
9.36418
9.37901
9.39175
9.40257
9.412
9.42041
9.42786
9.4345
9.44051
9.44587
9.45068
9.45506
9.459
9.46263
9.46612
9.4695
9.47264
9.47551
9.47813
9.48042
9.48237
9.484
9.48521
9.48599
9.48636
5.31446
5.32822
5.35731
5.40521
5.47791
5.58463
5.73735
5.94549
6.19965
6.45848
6.71296
6.96352
7.19534
7.41158
7.61764
7.80548
7.97842
8.13886
8.27648
8.39314
8.49681
8.59243
8.67762
8.75429
8.82462
8.88665
8.94178
8.99178
9.03578
9.07542
9.11335
9.15047
9.18446
9.21541
9.24402
9.26946
9.29231
9.31331
9.33197
9.34874
9.36393
9.37679
9.38755
9.3969
9.40534
9.41276
9.4194
9.42545
9.43081
9.43562
9.44002
9.44396
9.44757
9.4511
9.4546
9.45784
9.46079
9.46352
9.46589
9.46791
9.46963
9.47088
9.47168
9.47205
5.15841
5.17122
5.19844
5.24372
5.3136
5.41884
5.57502
5.79752
6.07832
6.35533
6.62364
6.89028
7.13144
7.35483
7.57062
7.76427
7.94252
8.11084
8.25158
8.36809
8.47185
8.5695
8.65549
8.73274
8.80464
8.86715
8.92243
8.97313
9.01696
9.05609
9.09422
9.13266
9.16734
9.19874
9.22812
9.25384
9.27687
9.29834
9.3172
9.33417
9.34981
9.36277
9.37336
9.38259
9.39105
9.39844
9.40503
9.41114
9.41648
9.42127
9.42571
9.42962
9.43319
9.43675
9.4404
9.44372
9.44675
9.4496
9.45204
9.45413
9.45594
9.45724
9.45805
9.45842
5.0077
5.01942
5.04443
5.08645
5.15239
5.2544
5.41212
5.64929
5.96274
6.2577
6.53842
6.82318
7.07241
7.30144
7.52821
7.72664
7.90934
8.08722
8.23058
8.34561
8.44869
8.54893
8.63534
8.71275
8.78663
8.84933
8.90446
8.95609
8.99951
9.03773
9.0759
9.11607
9.15135
9.18303
9.21333
9.23922
9.2623
9.28433
9.3033
9.32039
9.33662
9.34963
9.35996
9.36899
9.37752
9.38483
9.39135
9.39754
9.40285
9.40759
9.41209
9.41595
9.41944
9.42301
9.42686
9.43026
9.43336
9.43634
9.43884
9.44098
9.44292
9.44427
9.44507
9.44543
4.86235
4.87285
4.89536
4.93354
4.99442
5.09127
5.24795
5.49947
5.85417
6.16584
6.45651
6.76278
7.01808
7.25063
7.49065
7.69232
7.87812
8.0683
8.21349
8.32537
8.42685
8.53072
8.61703
8.69402
8.77059
8.83311
8.88765
8.94066
8.98337
9.02018
9.05817
9.10072
9.13644
9.16816
9.19966
9.22554
9.24847
9.27126
9.29021
9.30731
9.32436
9.33735
9.34729
9.35604
9.36471
9.37191
9.37831
9.38464
9.38987
9.39454
9.39914
9.40292
9.40628
9.40986
9.41396
9.41743
9.42056
9.42371
9.42625
9.42844
9.43053
9.43192
9.43271
9.43305
4.72234
4.73152
4.75129
4.78511
4.83988
4.92949
5.08179
5.34623
5.75451
6.08003
6.37667
6.70995
6.96834
7.20131
7.45844
7.66104
7.84784
8.05455
8.20037
8.30704
8.40573
8.515
8.60042
8.67614
8.75661
8.81836
8.87172
8.9269
8.96851
9.00329
9.04078
9.08671
9.12257
9.15396
9.18714
9.21275
9.23527
9.25913
9.27787
9.29481
9.31302
9.32591
9.33528
9.34368
9.3526
9.35962
9.36585
9.3724
9.37753
9.38206
9.38683
9.3905
9.39368
9.39723
9.40168
9.40519
9.40832
9.4117
9.41426
9.41646
9.41875
9.42017
9.42093
9.42125
4.58765
4.59544
4.61229
4.64132
4.68902
4.76924
4.91298
5.18697
5.66653
6.00053
6.29709
6.66605
6.92302
7.15203
7.43246
7.63252
7.81713
8.0468
8.19128
8.2902
8.3846
8.50208
8.58539
8.65863
8.7449
8.805
8.85634
8.91495
8.95491
8.9869
9.0234
9.07421
9.10971
9.14022
9.17583
9.20079
9.22253
9.248
9.26623
9.28274
9.30265
9.31528
9.32389
9.3318
9.3412
9.34795
9.35391
9.36083
9.36577
9.37012
9.37516
9.37867
9.3816
9.38507
9.39003
9.39352
9.39659
9.40028
9.40282
9.405
9.40756
9.40899
9.40971
9.41
4.45822
4.46458
4.47838
4.50231
4.54213
4.61087
4.74102
5.01806
5.59416
5.92753
6.21513
6.63312
6.88194
7.10073
7.41412
7.6065
7.78411
8.04627
8.18628
8.27448
8.36253
8.4925
8.57184
8.64083
8.73581
8.79294
8.84103
8.90503
8.94254
8.97087
9.00563
9.06348
9.09782
9.12667
9.16589
9.18962
9.21005
9.23793
9.25524
9.27093
9.29333
9.30544
9.31306
9.32033
9.33051
9.33686
9.34241
9.34993
9.35459
9.35864
9.36413
9.36741
9.37
9.37333
9.37901
9.3824
9.38533
9.38946
9.39191
9.39401
9.39695
9.39837
9.39902
9.39926
4.33397
4.33889
4.34957
4.3682
4.39953
4.45488
4.56572
4.83443
5.5429
5.86111
6.12711
6.61414
6.84489
7.04469
7.40553
7.58272
7.74629
8.05479
8.18533
8.25945
8.33833
8.48707
8.55964
8.62189
8.72993
8.78207
8.82523
8.89751
8.9314
8.95506
8.98693
9.05497
9.08685
9.11296
9.15752
9.17918
9.19756
9.22909
9.24485
9.25915
9.28518
9.29637
9.30272
9.30915
9.32057
9.32631
9.33127
9.33972
9.34393
9.34756
9.35374
9.3567
9.35886
9.36193
9.36864
9.3718
9.37448
9.37925
9.38151
9.38344
9.38693
9.38827
9.38882
9.38902
4.21484
4.21831
4.22587
4.2391
4.26154
4.30196
4.38742
4.62909
5.52027
5.80113
6.02801
6.61332
6.81154
6.98021
7.40974
7.56089
7.70033
8.07498
8.18823
8.24476
8.31047
8.48704
8.54868
8.60069
8.72808
8.77229
8.80815
8.89291
8.92144
8.93939
8.9666
9.04928
9.07676
9.09859
9.15107
9.16943
9.18473
9.22171
9.23502
9.24709
9.27839
9.28802
9.29284
9.29812
9.31146
9.31628
9.32039
9.33025
9.33379
9.3368
9.34403
9.34651
9.34815
9.35078
9.35897
9.3617
9.36396
9.36965
9.37159
9.37323
9.37749
9.37867
9.37909
9.37924
4.10069
4.10275
4.10723
4.11508
4.12847
4.15294
4.20726
4.39258
5.53637
5.74711
5.91108
6.63647
6.78148
6.90243
7.43097
7.54075
7.64184
8.11044
8.19451
8.23014
8.27697
8.49411
8.53879
8.57575
8.73146
8.76345
8.78879
8.892
8.91257
8.92384
8.94373
9.04726
9.06745
9.08297
9.14702
9.16029
9.17113
9.21611
9.2257
9.23437
9.27324
9.28034
9.28337
9.28707
9.30327
9.30673
9.30963
9.32158
9.32412
9.32625
9.33504
9.33682
9.33785
9.33979
9.35006
9.35207
9.35369
9.3607
9.36212
9.3633
9.36865
9.36954
9.36981
9.3699
3.99143
3.9921
3.99358
3.99617
4.0006
4.00876
4.02757
4.11224
5.6045
5.69809
5.76752
6.69141
6.7541
6.80501
7.47494
7.52197
7.56514
8.1661
8.20326
8.21554
8.23532
8.51063
8.52978
8.54519
8.74169
8.75538
8.76588
8.8958
8.90461
8.90849
8.91714
9.05003
9.05883
9.06528
9.14602
9.15169
9.15619
9.21276
9.21683
9.22051
9.27011
9.27323
9.27427
9.27581
9.29617
9.29763
9.29884
9.31383
9.3149
9.31579
9.32684
9.3276
9.32796
9.3288
9.34201
9.34289
9.34357
9.35247
9.35308
9.35358
9.36045
9.36085
9.36095
9.36098
)
;

boundaryField
{
    left
    {
        type            zeroGradient;
    }
    right
    {
        type            zeroGradient;
    }
    interface
    {
        type            fixedValue;
        value           nonuniform List<scalar> 
64
(
3.938
3.938
3.938
3.938
3.938
3.938
3.938
3.938
5.67477
5.67477
5.67477
6.74103
6.74103
6.74103
7.5129
7.5129
7.5129
8.2082
8.2082
8.2082
8.2082
8.52547
8.52547
8.52547
8.75152
8.75152
8.75152
8.90086
8.90086
8.90086
8.90086
9.05467
9.05467
9.05467
9.14751
9.14751
9.14751
9.21251
9.21251
9.21251
9.26981
9.26981
9.26981
9.26981
9.2932
9.2932
9.2932
9.3104
9.3104
9.3104
9.3231
9.3231
9.3231
9.3231
9.33841
9.33841
9.33841
9.34867
9.34867
9.34867
9.35662
9.35662
9.35662
9.35662
)
;
    }
    bottom
    {
        type            fixedValue;
        value           uniform 10;
    }
    defaultFaces
    {
        type            empty;
    }
}


// ************************************************************************* //
