/*--------------------------------*- C++ -*----------------------------------*\
| =========                 |                                                 |
| \\      /  F ield         | OpenFOAM: The Open Source CFD Toolbox           |
|  \\    /   O peration     | Version:  5.x                                   |
|   \\  /    A nd           | Web:      www.OpenFOAM.org                      |
|    \\/     M anipulation  |                                                 |
\*---------------------------------------------------------------------------*/
FoamFile
{
    version     2.0;
    format      ascii;
    class       volScalarField;
    location    "1";
    object      gradTy;
}
// * * * * * * * * * * * * * * * * * * * * * * * * * * * * * * * * * * * * * //

dimensions      [0 -1 0 1 0 0 0];

internalField   nonuniform List<scalar> 
2048
(
-25.3289
-25.2832
-25.1925
-25.0582
-24.8829
-24.6699
-24.4234
-24.1486
-23.8514
-23.5383
-23.2158
-22.8905
-22.5682
-22.2543
-21.953
-21.6678
-21.401
-21.1542
-20.9282
-20.7229
-20.538
-20.3725
-20.2252
-20.0949
-19.9801
-19.8794
-19.7913
-19.7144
-19.6476
-19.5895
-19.5392
-19.4957
-19.458
-19.4255
-19.3975
-19.3733
-19.3525
-19.3346
-19.3193
-19.3061
-19.2948
-19.2851
-19.2768
-19.2698
-19.2637
-19.2585
-19.2541
-19.2502
-19.247
-19.2441
-19.2417
-19.2396
-19.2377
-19.2361
-19.2346
-19.2334
-19.2323
-19.2313
-19.2304
-19.2297
-19.2292
-19.2287
-19.2284
-19.2283
-25.3648
-25.3185
-25.2265
-25.0903
-24.9123
-24.6957
-24.4449
-24.1653
-23.8628
-23.5443
-23.2166
-22.8864
-22.5598
-22.2423
-21.9382
-21.6509
-21.3828
-21.1354
-20.9093
-20.7043
-20.52
-20.3554
-20.2092
-20.08
-19.9663
-19.8667
-19.7797
-19.7039
-19.6379
-19.5807
-19.5312
-19.4883
-19.4513
-19.4193
-19.3917
-19.368
-19.3475
-19.33
-19.3149
-19.3019
-19.2908
-19.2813
-19.2732
-19.2663
-19.2603
-19.2552
-19.2509
-19.2471
-19.2439
-19.2412
-19.2388
-19.2367
-19.2348
-19.2332
-19.2318
-19.2306
-19.2295
-19.2285
-19.2277
-19.227
-19.2264
-19.2259
-19.2256
-19.2255
-25.4332
-25.3857
-25.2914
-25.1515
-24.9684
-24.7451
-24.4862
-24.1972
-23.8847
-23.5557
-23.2178
-22.8782
-22.5433
-22.2189
-21.9095
-21.6184
-21.348
-21.0994
-20.8731
-20.6689
-20.4859
-20.323
-20.1788
-20.0518
-19.9403
-19.8428
-19.7578
-19.6839
-19.6198
-19.5642
-19.5161
-19.4745
-19.4386
-19.4076
-19.3809
-19.3579
-19.3382
-19.3212
-19.3066
-19.2941
-19.2834
-19.2742
-19.2664
-19.2597
-19.2539
-19.2491
-19.2449
-19.2413
-19.2382
-19.2355
-19.2332
-19.2312
-19.2294
-19.2279
-19.2265
-19.2253
-19.2242
-19.2232
-19.2224
-19.2217
-19.2211
-19.2207
-19.2203
-19.2202
-25.5305
-25.4815
-25.384
-25.239
-25.0487
-24.816
-24.5454
-24.2429
-23.9156
-23.5715
-23.2188
-22.8656
-22.5189
-22.1847
-21.8678
-21.5715
-21.2978
-21.0477
-20.8214
-20.6184
-20.4374
-20.2771
-20.1359
-20.0119
-19.9036
-19.8092
-19.7271
-19.6559
-19.5943
-19.541
-19.4949
-19.4551
-19.4208
-19.3912
-19.3658
-19.3438
-19.325
-19.3088
-19.2949
-19.283
-19.2729
-19.2642
-19.2567
-19.2504
-19.245
-19.2404
-19.2364
-19.233
-19.2301
-19.2276
-19.2254
-19.2235
-19.2218
-19.2203
-19.219
-19.2178
-19.2167
-19.2158
-19.215
-19.2142
-19.2137
-19.2132
-19.2129
-19.2127
-25.6537
-25.6029
-25.5016
-25.3506
-25.1513
-24.9067
-24.6213
-24.3013
-23.9548
-23.5909
-23.219
-22.8481
-22.4862
-22.1398
-21.8135
-21.5108
-21.2332
-20.9816
-20.7557
-20.5544
-20.3762
-20.2194
-20.082
-19.9621
-19.8578
-19.7673
-19.6889
-19.6212
-19.5627
-19.5122
-19.4686
-19.4311
-19.3988
-19.3709
-19.347
-19.3263
-19.3086
-19.2935
-19.2805
-19.2693
-19.2598
-19.2517
-19.2448
-19.2389
-19.2338
-19.2296
-19.2259
-19.2227
-19.22
-19.2177
-19.2157
-19.2139
-19.2123
-19.2109
-19.2096
-19.2085
-19.2075
-19.2065
-19.2057
-19.205
-19.2044
-19.2039
-19.2036
-19.2034
-25.8001
-25.7475
-25.6422
-25.4843
-25.2749
-25.0162
-24.7128
-24.3715
-24.0013
-23.613
-23.2174
-22.8251
-22.4449
-22.0838
-21.7467
-21.4367
-21.1551
-20.9022
-20.677
-20.4782
-20.3036
-20.1512
-20.0187
-19.9037
-19.8043
-19.7185
-19.6445
-19.5808
-19.526
-19.4788
-19.4382
-19.4033
-19.3732
-19.3474
-19.3251
-19.3061
-19.2897
-19.2756
-19.2636
-19.2534
-19.2446
-19.2372
-19.2308
-19.2254
-19.2208
-19.2169
-19.2136
-19.2107
-19.2083
-19.2061
-19.2043
-19.2027
-19.2012
-19.1999
-19.1987
-19.1976
-19.1966
-19.1957
-19.1948
-19.1941
-19.1935
-19.193
-19.1926
-19.1925
-25.9674
-25.913
-25.8037
-25.6388
-25.4183
-25.1438
-24.8196
-24.453
-24.0545
-23.6369
-23.2133
-22.7957
-22.3942
-22.0165
-21.6673
-21.3495
-21.0639
-20.8101
-20.5865
-20.391
-20.2211
-20.0741
-19.9472
-19.8381
-19.7443
-19.6639
-19.5949
-19.5358
-19.4851
-19.4417
-19.4044
-19.3724
-19.3449
-19.3212
-19.3009
-19.2835
-19.2685
-19.2558
-19.2449
-19.2356
-19.2276
-19.2209
-19.2152
-19.2104
-19.2063
-19.2028
-19.1998
-19.1973
-19.1951
-19.1932
-19.1915
-19.1901
-19.1887
-19.1875
-19.1864
-19.1854
-19.1844
-19.1835
-19.1826
-19.1819
-19.1812
-19.1807
-19.1803
-19.1802
-26.153
-26.0971
-25.9843
-25.8127
-25.5809
-25.2892
-24.9414
-24.5455
-24.1139
-23.6619
-23.2054
-22.7587
-22.3333
-21.9372
-21.5751
-21.2494
-20.9602
-20.7061
-20.485
-20.2939
-20.1297
-19.9891
-19.8689
-19.7664
-19.679
-19.6046
-19.5412
-19.4871
-19.441
-19.4017
-19.368
-19.3391
-19.3143
-19.293
-19.2747
-19.2591
-19.2457
-19.2343
-19.2245
-19.2163
-19.2092
-19.2033
-19.1983
-19.194
-19.1904
-19.1874
-19.1848
-19.1826
-19.1807
-19.1791
-19.1776
-19.1763
-19.1752
-19.1741
-19.173
-19.172
-19.1711
-19.1702
-19.1693
-19.1685
-19.1678
-19.1673
-19.1669
-19.1667
-26.3547
-26.298
-26.1826
-26.0051
-25.7622
-25.4524
-25.0784
-24.649
-24.1789
-23.6871
-23.1928
-22.7132
-22.2612
-21.8453
-21.4699
-21.1365
-20.8443
-20.591
-20.3734
-20.1879
-20.0306
-19.8974
-19.7849
-19.6898
-19.6095
-19.5417
-19.4843
-19.4357
-19.3945
-19.3595
-19.3296
-19.304
-19.2821
-19.2633
-19.2471
-19.2333
-19.2215
-19.2115
-19.203
-19.1958
-19.1897
-19.1846
-19.1803
-19.1766
-19.1736
-19.171
-19.1688
-19.167
-19.1654
-19.164
-19.1628
-19.1617
-19.1606
-19.1597
-19.1587
-19.1578
-19.1569
-19.156
-19.1551
-19.1542
-19.1535
-19.1529
-19.1525
-19.1523
-26.57
-26.5133
-26.3968
-26.2151
-25.9621
-25.6338
-25.2313
-24.7638
-24.2493
-23.7114
-23.1741
-22.6577
-22.1768
-21.7401
-21.3514
-21.0109
-20.7167
-20.4653
-20.2526
-20.0741
-19.9248
-19.8003
-19.6963
-19.6094
-19.5368
-19.476
-19.425
-19.3822
-19.3462
-19.3157
-19.2898
-19.2677
-19.2487
-19.2324
-19.2184
-19.2065
-19.1964
-19.1878
-19.1805
-19.1744
-19.1693
-19.165
-19.1614
-19.1584
-19.1559
-19.1539
-19.1521
-19.1506
-19.1493
-19.1482
-19.1472
-19.1463
-19.1454
-19.1446
-19.1437
-19.1428
-19.1419
-19.141
-19.1401
-19.1392
-19.1384
-19.1378
-19.1373
-19.1371
-26.7966
-26.7409
-26.6253
-26.4418
-26.1806
-25.8342
-25.4009
-24.8904
-24.3247
-23.7338
-23.1479
-22.5909
-22.0791
-21.6211
-21.2194
-20.8729
-20.5779
-20.3299
-20.1235
-19.9534
-19.8135
-19.6986
-19.6041
-19.5261
-19.4617
-19.4084
-19.3642
-19.3275
-19.2968
-19.2711
-19.2492
-19.2306
-19.2146
-19.2008
-19.1891
-19.1791
-19.1706
-19.1634
-19.1574
-19.1524
-19.1482
-19.1448
-19.142
-19.1396
-19.1377
-19.1361
-19.1348
-19.1336
-19.1327
-19.1318
-19.131
-19.1303
-19.1296
-19.1289
-19.1281
-19.1273
-19.1265
-19.1255
-19.1246
-19.1236
-19.1227
-19.122
-19.1215
-19.1213
-27.0317
-26.9786
-26.8665
-26.6844
-26.4181
-26.0547
-25.5887
-25.0296
-24.4047
-23.7531
-23.1124
-22.511
-21.9668
-21.4874
-21.0738
-20.7226
-20.4284
-20.1853
-19.9869
-19.8267
-19.6976
-19.5936
-19.5093
-19.4409
-19.3851
-19.3396
-19.3024
-19.2719
-19.2469
-19.2259
-19.2083
-19.1931
-19.1801
-19.1689
-19.1593
-19.1512
-19.1444
-19.1387
-19.1339
-19.13
-19.1268
-19.1242
-19.1221
-19.1204
-19.1191
-19.118
-19.117
-19.1163
-19.1156
-19.115
-19.1145
-19.114
-19.1134
-19.1128
-19.1122
-19.1114
-19.1106
-19.1096
-19.1086
-19.1076
-19.1066
-19.1058
-19.1052
-19.105
-27.2728
-27.2239
-27.1185
-26.942
-26.6748
-26.2968
-25.7966
-25.1825
-24.489
-23.7677
-23.0659
-22.4165
-21.8387
-21.3387
-20.9145
-20.5604
-20.269
-20.0325
-19.8437
-19.695
-19.5782
-19.486
-19.4129
-19.3545
-19.3077
-19.2703
-19.2403
-19.2162
-19.1968
-19.1808
-19.1673
-19.1557
-19.1456
-19.1368
-19.1294
-19.1232
-19.118
-19.1137
-19.1102
-19.1073
-19.1051
-19.1033
-19.102
-19.101
-19.1002
-19.0996
-19.0991
-19.0986
-19.0983
-19.098
-19.0977
-19.0973
-19.097
-19.0965
-19.096
-19.0953
-19.0944
-19.0935
-19.0924
-19.0912
-19.0902
-19.0892
-19.0886
-19.0883
-27.5169
-27.4742
-27.3793
-27.2138
-26.9512
-26.5625
-26.0272
-25.3508
-24.5771
-23.7757
-23.0061
-22.3054
-21.6937
-21.1745
-20.7417
-20.387
-20.1002
-19.872
-19.6946
-19.5593
-19.4563
-19.377
-19.3156
-19.2677
-19.2303
-19.201
-19.1784
-19.1608
-19.1471
-19.1361
-19.1268
-19.1186
-19.1113
-19.105
-19.0996
-19.0952
-19.0916
-19.0887
-19.0864
-19.0846
-19.0833
-19.0824
-19.0818
-19.0814
-19.0812
-19.081
-19.0809
-19.0809
-19.0808
-19.0808
-19.0807
-19.0806
-19.0804
-19.08
-19.0796
-19.079
-19.0781
-19.0771
-19.076
-19.0747
-19.0735
-19.0724
-19.0717
-19.0714
-27.7612
-27.7269
-27.6468
-27.4986
-27.2479
-26.8542
-26.2838
-25.5365
-24.6681
-23.7749
-22.9308
-22.1758
-21.5306
-20.9946
-20.5558
-20.2029
-19.9231
-19.7048
-19.5405
-19.4204
-19.3327
-19.2674
-19.2184
-19.1813
-19.1533
-19.1324
-19.1171
-19.106
-19.0981
-19.0921
-19.087
-19.082
-19.0774
-19.0734
-19.0701
-19.0674
-19.0654
-19.0638
-19.0627
-19.062
-19.0616
-19.0615
-19.0616
-19.0619
-19.0622
-19.0625
-19.0628
-19.0631
-19.0633
-19.0635
-19.0637
-19.0637
-19.0637
-19.0635
-19.0632
-19.0626
-19.0618
-19.0608
-19.0595
-19.0581
-19.0567
-19.0555
-19.0547
-19.0543
-28.0029
-27.9791
-27.9186
-27.795
-27.5652
-27.1745
-26.5707
-25.7424
-24.7607
-23.7622
-22.8374
-22.0255
-21.3485
-20.799
-20.3571
-20.0091
-19.7385
-19.5315
-19.3819
-19.2793
-19.2086
-19.158
-19.1218
-19.0959
-19.0772
-19.0646
-19.0567
-19.0521
-19.05
-19.0492
-19.0481
-19.0463
-19.0442
-19.0424
-19.0409
-19.04
-19.0394
-19.0392
-19.0393
-19.0396
-19.04
-19.0407
-19.0415
-19.0424
-19.0433
-19.0441
-19.0447
-19.0454
-19.0459
-19.0463
-19.0467
-19.0469
-19.0471
-19.047
-19.0468
-19.0463
-19.0455
-19.0445
-19.0431
-19.0415
-19.0399
-19.0385
-19.0376
-19.0371
-28.2391
-28.2282
-28.1921
-28.1011
-27.9033
-27.5265
-26.8931
-25.972
-24.8526
-23.734
-22.7234
-21.8524
-21.1463
-20.5883
-20.1463
-19.8064
-19.5477
-19.3528
-19.2196
-19.1368
-19.0849
-19.0496
-19.0266
-19.0119
-19.0025
-18.9982
-18.9977
-18.9994
-19.0031
-19.0074
-19.0104
-19.0114
-19.0117
-19.012
-19.0123
-19.0129
-19.0139
-19.015
-19.0162
-19.0174
-19.0186
-19.0201
-19.0216
-19.0232
-19.0245
-19.0257
-19.0268
-19.0277
-19.0285
-19.0292
-19.0298
-19.0302
-19.0305
-19.0306
-19.0305
-19.0301
-19.0294
-19.0283
-19.0268
-19.025
-19.0231
-19.0214
-19.0204
-19.0198
-28.4671
-28.4712
-28.4646
-28.4148
-28.2618
-27.9135
-27.2578
-26.2304
-24.9403
-23.6854
-22.5865
-21.6538
-20.9234
-20.3633
-19.924
-19.596
-19.352
-19.1691
-19.0538
-18.9937
-18.9628
-18.943
-18.9332
-18.93
-18.9294
-18.9333
-18.9401
-18.9479
-18.9575
-18.9672
-18.9741
-18.9776
-18.98
-18.9822
-18.9841
-18.9864
-18.9888
-18.9911
-18.9934
-18.9955
-18.9975
-18.9997
-19.002
-19.0041
-19.006
-19.0076
-19.009
-19.0102
-19.0113
-19.0122
-19.013
-19.0136
-19.0141
-19.0143
-19.0143
-19.014
-19.0133
-19.0122
-19.0106
-19.0085
-19.0063
-19.0043
-19.0032
-19.0025
-28.6844
-28.7053
-28.7329
-28.7334
-28.6399
-28.3389
-27.6734
-26.5246
-25.0176
-23.6107
-22.4254
-21.4272
-20.679
-20.126
-19.6909
-19.379
-19.1532
-18.9807
-18.8846
-18.8511
-18.8433
-18.8385
-18.8422
-18.8505
-18.8581
-18.87
-18.8842
-18.8978
-18.9132
-18.9285
-18.9395
-18.9449
-18.9492
-18.9532
-18.9565
-18.9604
-18.9643
-18.9676
-18.971
-18.9741
-18.9767
-18.9796
-18.9826
-18.9854
-18.9877
-18.9897
-18.9915
-18.9929
-18.9942
-18.9954
-18.9963
-18.9972
-18.9978
-18.9982
-18.9983
-18.998
-18.9974
-18.9963
-18.9946
-18.9922
-18.9896
-18.9872
-18.986
-18.9853
-28.8887
-28.9281
-28.9939
-29.0535
-29.0357
-28.8056
-28.1502
-26.8645
-25.0752
-23.5025
-22.24
-21.1689
-20.4127
-19.879
-19.4471
-19.1569
-18.9538
-18.7874
-18.712
-18.71
-18.7279
-18.7367
-18.7538
-18.774
-18.7887
-18.8086
-18.8303
-18.8489
-18.8703
-18.8917
-18.9066
-18.9132
-18.9191
-18.925
-18.9295
-18.9349
-18.9403
-18.9446
-18.949
-18.953
-18.9562
-18.9597
-18.9635
-18.9669
-18.9697
-18.9721
-18.9741
-18.9758
-18.9774
-18.9787
-18.9798
-18.9809
-18.9817
-18.9823
-18.9824
-18.9823
-18.9817
-18.9806
-18.9789
-18.9761
-18.9729
-18.9701
-18.9688
-18.9681
-29.0782
-29.1371
-29.2445
-29.3712
-29.4462
-29.316
-28.7009
-27.2651
-25.0977
-23.3523
-22.0335
-20.8742
-20.124
-19.6269
-19.1922
-18.9307
-18.757
-18.5883
-18.5354
-18.5714
-18.6184
-18.6375
-18.6682
-18.7011
-18.721
-18.749
-18.7787
-18.8013
-18.8287
-18.857
-18.8759
-18.8824
-18.8898
-18.8977
-18.903
-18.9099
-18.917
-18.9221
-18.9275
-18.9324
-18.9359
-18.9401
-18.9447
-18.9488
-18.9519
-18.9547
-18.9571
-18.959
-18.9607
-18.9623
-18.9635
-18.9647
-18.9658
-18.9665
-18.9667
-18.9667
-18.9663
-18.9652
-18.9634
-18.9603
-18.9562
-18.9531
-18.9517
-18.951
-29.2512
-29.3302
-29.4815
-29.6823
-29.8671
-29.871
-29.3403
-27.7485
-25.0615
-23.1497
-21.8134
-20.5357
-19.8127
-19.3766
-18.9242
-18.7019
-18.5675
-18.3814
-18.3538
-18.4368
-18.517
-18.5406
-18.5856
-18.6327
-18.6546
-18.6913
-18.7298
-18.7545
-18.7884
-18.8245
-18.8477
-18.8524
-18.8612
-18.8714
-18.8769
-18.8855
-18.8944
-18.9
-18.9065
-18.9124
-18.916
-18.9208
-18.9264
-18.9312
-18.9345
-18.9376
-18.9403
-18.9423
-18.9443
-18.9461
-18.9474
-18.9489
-18.9502
-18.951
-18.9512
-18.9514
-18.9511
-18.95
-18.9483
-18.9448
-18.9396
-18.936
-18.9346
-18.9342
-29.4066
-29.5057
-29.702
-29.9818
-30.2926
-30.4692
-30.0853
-28.3479
-24.9299
-22.8834
-21.595
-20.1421
-19.4786
-19.1387
-18.6386
-18.4717
-18.3923
-18.1633
-18.1659
-18.3079
-18.4267
-18.4449
-18.5059
-18.57
-18.5889
-18.6354
-18.6844
-18.7082
-18.7491
-18.7947
-18.8226
-18.8227
-18.8333
-18.8464
-18.8511
-18.8618
-18.8729
-18.8783
-18.8861
-18.8932
-18.8963
-18.9018
-18.9085
-18.9141
-18.9174
-18.9209
-18.924
-18.926
-18.9282
-18.9302
-18.9316
-18.9333
-18.9348
-18.9358
-18.936
-18.9363
-18.9363
-18.9351
-18.9336
-18.9297
-18.923
-18.9191
-18.9178
-18.9177
-29.5438
-29.6623
-29.9032
-30.2648
-30.7152
-31.106
-30.9535
-29.1137
-24.6472
-22.5414
-21.4041
-19.6749
-19.1214
-18.929
-18.3269
-18.241
-18.2413
-17.9278
-17.9697
-18.187
-18.3515
-18.3481
-18.4289
-18.5149
-18.5225
-18.5814
-18.6434
-18.6616
-18.7106
-18.7679
-18.8014
-18.7928
-18.8059
-18.8232
-18.8254
-18.8387
-18.8526
-18.8569
-18.8663
-18.8749
-18.8769
-18.8832
-18.8912
-18.8976
-18.9007
-18.9046
-18.9081
-18.91
-18.9125
-18.9148
-18.9161
-18.918
-18.9199
-18.9211
-18.921
-18.9216
-18.9219
-18.9206
-18.9194
-18.9153
-18.9065
-18.9023
-18.9013
-18.9015
-29.6625
-29.7993
-30.0828
-30.5262
-31.1259
-31.7727
-31.9615
-30.1213
-24.1298
-22.1123
-21.2827
-19.1046
-18.7414
-18.7709
-17.9745
-18.0111
-18.1294
-17.6651
-17.7633
-18.0766
-18.2968
-18.2465
-18.3545
-18.47
-18.4533
-18.5291
-18.6086
-18.6136
-18.6726
-18.7445
-18.7853
-18.7617
-18.779
-18.8023
-18.7994
-18.8162
-18.8339
-18.8356
-18.8472
-18.8578
-18.8576
-18.8649
-18.8745
-18.8819
-18.8844
-18.8888
-18.8928
-18.8944
-18.8972
-18.8999
-18.901
-18.9031
-18.9054
-18.9068
-18.9064
-18.9073
-18.908
-18.9065
-18.9059
-18.9018
-18.8898
-18.8856
-18.8851
-18.8857
-29.7628
-29.9161
-30.2391
-30.7612
-31.5143
-32.4548
-33.1212
-31.4825
-23.2545
-21.5874
-21.295
-18.3851
-18.34
-18.6983
-17.5575
-17.783
-18.0779
-17.3598
-17.545
-17.9796
-18.2703
-18.1339
-18.2824
-18.4396
-18.3781
-18.4786
-18.5822
-18.5622
-18.6348
-18.7249
-18.7759
-18.7278
-18.7525
-18.7845
-18.7724
-18.7945
-18.8173
-18.8142
-18.8289
-18.8423
-18.8382
-18.8469
-18.8586
-18.8672
-18.8684
-18.8735
-18.8783
-18.8791
-18.8824
-18.8855
-18.8862
-18.8887
-18.8914
-18.8931
-18.8921
-18.8935
-18.8947
-18.8926
-18.893
-18.8895
-18.8729
-18.8691
-18.8694
-18.8704
-29.845
-30.0128
-30.3711
-30.9657
-31.8695
-33.1318
-34.4338
-33.3616
-21.8431
-20.964
-21.5351
-17.4459
-17.9203
-18.7598
-17.0389
-17.5586
-18.117
-16.9884
-17.3139
-17.8993
-18.282
-18.0011
-18.2125
-18.4294
-18.2918
-18.4297
-18.5675
-18.5048
-18.5969
-18.7094
-18.7753
-18.6888
-18.7263
-18.7712
-18.7433
-18.7733
-18.8034
-18.7918
-18.8112
-18.8287
-18.8182
-18.8293
-18.8434
-18.8535
-18.8524
-18.8586
-18.8644
-18.8641
-18.868
-18.8717
-18.8717
-18.8746
-18.8779
-18.8801
-18.8779
-18.88
-18.882
-18.8789
-18.8808
-18.8786
-18.8554
-18.8527
-18.8541
-18.8555
-29.9101
-30.0901
-30.4781
-31.1363
-32.1804
-33.7768
-35.8812
-35.9954
-19.6411
-20.2504
-22.1372
-16.1819
-17.489
-19.0231
-16.3633
-17.3405
-18.2891
-16.5164
-17.0716
-17.8384
-18.3462
-17.8344
-18.1448
-18.4477
-18.1868
-18.3826
-18.5691
-18.4371
-18.5587
-18.6979
-18.7867
-18.6412
-18.7003
-18.764
-18.7106
-18.7528
-18.7932
-18.7677
-18.794
-18.8177
-18.7971
-18.8119
-18.8289
-18.841
-18.8364
-18.8441
-18.8513
-18.849
-18.854
-18.8586
-18.8572
-18.8607
-18.8647
-18.8676
-18.8637
-18.8668
-18.87
-18.8651
-18.8692
-18.8696
-18.8367
-18.8364
-18.8392
-18.8409
-29.9589
-30.1486
-30.5604
-31.2711
-32.4372
-34.3569
-37.4139
-39.7207
-16.2925
-19.4727
-23.2869
-14.4408
-17.0592
-19.5819
-15.4506
-17.1335
-18.6527
-15.8941
-16.8237
-17.7989
-18.4819
-17.6144
-18.0802
-18.5061
-18.0526
-18.3379
-18.5937
-18.3535
-18.5205
-18.6903
-18.8143
-18.5803
-18.6747
-18.7652
-18.6719
-18.7329
-18.7879
-18.7404
-18.7775
-18.81
-18.774
-18.7946
-18.815
-18.8299
-18.8197
-18.83
-18.8392
-18.8337
-18.8402
-18.846
-18.8427
-18.8471
-18.8518
-18.8558
-18.8493
-18.8538
-18.8588
-18.8509
-18.8578
-18.8631
-18.816
-18.82
-18.8247
-18.8267
-29.9927
-30.1895
-30.6189
-31.3692
-32.632
-34.8358
-38.933
-45.008
-11.3069
-18.6845
-25.2342
-12.0074
-16.6536
-20.5618
-14.1879
-16.946
-19.2868
-15.0515
-16.5829
-17.7805
-18.7154
-17.3144
-18.0208
-18.6206
-17.8744
-18.2968
-18.6501
-18.2459
-18.4833
-18.6858
-18.8645
-18.4998
-18.6501
-18.7784
-18.6243
-18.714
-18.7893
-18.7083
-18.7616
-18.8069
-18.7477
-18.7778
-18.8017
-18.8206
-18.802
-18.8161
-18.8282
-18.8179
-18.8267
-18.8343
-18.8279
-18.8337
-18.8392
-18.8449
-18.8343
-18.841
-18.8485
-18.8359
-18.8468
-18.8599
-18.7926
-18.8039
-18.8107
-18.8129
-30.0127
-30.2143
-30.6551
-31.4314
-32.7604
-35.1777
-40.2684
-52.5024
-4.02104
-17.9793
-28.3086
-8.58494
-16.3103
-22.1293
-12.4207
-16.7921
-20.2965
-13.8923
-16.3724
-17.7792
-19.0819
-16.8983
-17.9704
-18.8127
-17.6325
-18.2616
-18.7504
-18.1036
-18.4499
-18.6831
-18.9457
-18.3912
-18.6279
-18.8084
-18.5637
-18.6967
-18.8002
-18.6693
-18.747
-18.8104
-18.7171
-18.7621
-18.7893
-18.814
-18.7831
-18.803
-18.819
-18.8017
-18.8139
-18.8239
-18.813
-18.8209
-18.8272
-18.8354
-18.819
-18.8288
-18.8399
-18.8202
-18.8361
-18.8619
-18.7654
-18.7886
-18.7975
-18.8001
-30.0205
-30.2244
-30.6707
-31.4597
-32.8218
-35.3545
-41.1498
-63.0737
6.4477
-17.5055
-32.9341
-3.77306
-16.0877
-24.4992
-9.94131
-16.693
-21.8176
-12.2856
-16.2304
-17.7841
-19.6278
-16.3177
-17.9348
-19.1097
-17.2995
-18.2357
-18.91
-17.9119
-18.424
-18.6788
-19.0692
-18.2428
-18.6097
-18.8608
-18.4846
-18.6817
-18.8238
-18.6203
-18.7336
-18.8223
-18.68
-18.748
-18.7775
-18.8108
-18.762
-18.7906
-18.812
-18.7844
-18.8016
-18.8151
-18.7976
-18.8086
-18.8154
-18.8277
-18.8028
-18.8169
-18.8332
-18.8031
-18.8252
-18.8704
-18.7327
-18.7746
-18.7852
-18.788
)
;

boundaryField
{
    left
    {
        type            calculated;
        value           nonuniform List<scalar> 
32
(
-25.3289
-25.3648
-25.4332
-25.5305
-25.6537
-25.8001
-25.9674
-26.153
-26.3547
-26.57
-26.7966
-27.0317
-27.2728
-27.5169
-27.7612
-28.0029
-28.2391
-28.4671
-28.6844
-28.8887
-29.0782
-29.2512
-29.4066
-29.5438
-29.6625
-29.7628
-29.845
-29.9101
-29.9589
-29.9927
-30.0127
-30.0205
)
;
    }
    right
    {
        type            calculated;
        value           nonuniform List<scalar> 
32
(
-19.2283
-19.2255
-19.2202
-19.2127
-19.2034
-19.1925
-19.1802
-19.1667
-19.1523
-19.1371
-19.1213
-19.105
-19.0883
-19.0714
-19.0543
-19.0371
-19.0198
-19.0025
-18.9853
-18.9681
-18.951
-18.9342
-18.9177
-18.9015
-18.8857
-18.8704
-18.8555
-18.8409
-18.8267
-18.8129
-18.8001
-18.788
)
;
    }
    interface
    {
        type            calculated;
        value           nonuniform List<scalar> 
64
(
-30.0215
-30.226
-30.6736
-31.4657
-32.8359
-35.3988
-41.4358
-69.2528
12.6034
-17.3489
-35.694
-0.962516
-16.0155
-25.9148
-8.49386
-16.6604
-22.7252
-11.3515
-16.1824
-17.7862
-19.9522
-15.9794
-17.9216
-19.2882
-17.1063
-18.2254
-19.0067
-17.8013
-18.4136
-18.6756
-19.1429
-18.157
-18.6017
-18.8933
-18.4394
-18.6748
-18.839
-18.5927
-18.7272
-18.8307
-18.6594
-18.7413
-18.7716
-18.81
-18.7508
-18.7845
-18.809
-18.7753
-18.7956
-18.811
-18.7897
-18.8025
-18.8095
-18.8242
-18.7942
-18.8109
-18.8304
-18.794
-18.8196
-18.8765
-18.7146
-18.768
-18.7791
-18.782
)
;
    }
    bottom
    {
        type            calculated;
        value           nonuniform List<scalar> 
64
(
-25.3196
-25.274
-25.1836
-25.0499
-24.8753
-24.6632
-24.4178
-24.1442
-23.8484
-23.5367
-23.2156
-22.8916
-22.5704
-22.2574
-21.9569
-21.6721
-21.4057
-21.1591
-20.9331
-20.7278
-20.5427
-20.3769
-20.2294
-20.0988
-19.9837
-19.8827
-19.7943
-19.7172
-19.6501
-19.5918
-19.5413
-19.4976
-19.4598
-19.4272
-19.399
-19.3747
-19.3538
-19.3359
-19.3204
-19.3072
-19.2958
-19.2861
-19.2778
-19.2707
-19.2646
-19.2594
-19.2549
-19.2511
-19.2478
-19.2449
-19.2425
-19.2403
-19.2385
-19.2368
-19.2354
-19.2341
-19.233
-19.232
-19.2312
-19.2305
-19.2299
-19.2295
-19.2292
-19.229
)
;
    }
    defaultFaces
    {
        type            empty;
    }
}


// ************************************************************************* //
