/*--------------------------------*- C++ -*----------------------------------*\
| =========                 |                                                 |
| \\      /  F ield         | OpenFOAM: The Open Source CFD Toolbox           |
|  \\    /   O peration     | Version:  5.x                                   |
|   \\  /    A nd           | Web:      www.OpenFOAM.org                      |
|    \\/     M anipulation  |                                                 |
\*---------------------------------------------------------------------------*/
FoamFile
{
    version     2.0;
    format      ascii;
    class       volScalarField;
    location    "1";
    object      gradTx;
}
// * * * * * * * * * * * * * * * * * * * * * * * * * * * * * * * * * * * * * //

dimensions      [0 -1 0 1 0 0 0];

internalField   nonuniform List<scalar> 
2048
(
0.0104809
0.031264
0.0515232
0.0708767
0.0889053
0.10519
0.119311
0.130895
0.139666
0.145474
0.148314
0.14833
0.145789
0.141056
0.134548
0.126702
0.11794
0.10865
0.0991657
0.0897645
0.0806619
0.0720164
0.0639354
0.0564824
0.0496857
0.0435464
0.0380458
0.0331511
0.0288209
0.0250085
0.0216656
0.0187435
0.0161958
0.0139789
0.0120527
0.0103812
0.00893227
0.00767761
0.00659238
0.00565491
0.00484629
0.00415002
0.0035517
0.00303875
0.00260011
0.00222606
0.00190804
0.00163848
0.00141066
0.00121863
0.001057
0.000920944
0.000806029
0.000708175
0.000623617
0.0005489
0.000480933
0.000417055
0.000355098
0.000293408
0.000230792
0.000166491
0.000100457
3.35297e-05
0.0311315
0.0928709
0.153077
0.210633
0.264292
0.312785
0.354837
0.389316
0.415373
0.432546
0.440826
0.440651
0.432841
0.418502
0.398901
0.375354
0.349131
0.321387
0.293119
0.265146
0.238103
0.212454
0.18851
0.166452
0.146356
0.128221
0.111985
0.0975481
0.084784
0.0735528
0.0637091
0.0551083
0.0476119
0.0410904
0.0354253
0.0305098
0.0262493
0.0225602
0.0193695
0.0166134
0.0142362
0.0121895
0.0104309
0.00892336
0.00763445
0.00653558
0.00560155
0.00481008
0.00414145
0.00357807
0.00310419
0.00270555
0.00236911
0.00208286
0.00183563
0.00161721
0.00141842
0.00123135
0.0010496
0.000868287
0.000683831
0.000493625
0.000296813
9.84085e-05
0.0512672
0.15297
0.252232
0.347254
0.435972
0.516234
0.585859
0.642883
0.685825
0.71388
0.727035
0.726056
0.712372
0.687888
0.654769
0.615244
0.571445
0.525296
0.478443
0.432224
0.387669
0.34552
0.306264
0.270176
0.23736
0.207795
0.181365
0.157895
0.137168
0.118949
0.102995
0.0890667
0.0769338
0.0663836
0.0572219
0.0492744
0.042387
0.036424
0.0312671
0.0268129
0.0229716
0.0196647
0.0168238
0.0143892
0.0123083
0.010535
0.0090283
0.00775235
0.00667518
0.00576836
0.00500643
0.00436632
0.00382692
0.00336867
0.00297336
0.00262423
0.00230617
0.00200615
0.00171361
0.00142061
0.00112156
0.000811793
0.000485544
0.000158727
0.0710793
0.212158
0.350043
0.482308
0.606073
0.718238
0.815596
0.895218
0.954872
0.993351
1.01064
1.00791
0.987292
0.951606
0.904015
0.847731
0.785789
0.720895
0.655334
0.590946
0.529124
0.470851
0.416756
0.367171
0.3222
0.281777
0.245716
0.21375
0.185567
0.16083
0.139196
0.120326
0.103904
0.0896327
0.0772451
0.0665025
0.0571947
0.0491374
0.04217
0.0361527
0.0309641
0.0264983
0.022663
0.0193773
0.0165702
0.0141794
0.0121495
0.0104318
0.00898319
0.00776519
0.00674339
0.00588663
0.00516628
0.0045557
0.00402998
0.00356598
0.00314274
0.00274211
0.00234922
0.00195297
0.00154643
0.0011248
0.000670831
0.000216026
0.0906864
0.270812
0.447207
0.616894
0.776174
0.920891
1.04663
1.14929
1.22571
1.27417
1.29469
1.28893
1.2599
1.2115
1.14803
1.0738
0.992786
0.90851
0.823889
0.741235
0.662267
0.588169
0.519662
0.457095
0.400534
0.349838
0.304726
0.264828
0.229722
0.198963
0.172103
0.148707
0.128365
0.110701
0.0953765
0.0820912
0.0705828
0.0606219
0.0520095
0.0445726
0.038161
0.0326439
0.0279074
0.0238517
0.0203888
0.0174415
0.0149414
0.0128281
0.011048
0.00955374
0.00830271
0.0072564
0.00637933
0.00563827
0.0050019
0.00444088
0.00392846
0.00344124
0.00295969
0.00246895
0.001961
0.00143427
0.000854968
0.000271826
0.110135
0.329098
0.544087
0.751689
0.947375
1.12579
1.28107
1.40761
1.50106
1.55908
1.58172
1.57133
1.532
1.46895
1.38781
1.29409
1.19281
1.08829
0.984097
0.882968
0.786909
0.697247
0.614745
0.539716
0.472142
0.411775
0.358214
0.310965
0.269489
0.233225
0.201614
0.174121
0.150244
0.129527
0.111563
0.095995
0.0825116
0.070843
0.0607552
0.0520456
0.0445382
0.0380802
0.0325383
0.0277956
0.0237494
0.0203086
0.017393
0.0149315
0.0128614
0.0111269
0.00967846
0.00847086
0.00746249
0.00661407
0.00588816
0.00524933
0.00466504
0.00410648
0.00354903
0.00297316
0.00236949
0.0017427
0.00103959
0.000327109
0.1294
0.386978
0.640734
0.886974
1.12035
1.33413
1.52063
1.67233
1.78331
1.85045
1.87391
1.85691
1.80498
1.72495
1.62398
1.50896
1.38599
1.26024
1.13585
1.01599
0.902866
0.797905
0.701841
0.614891
0.536907
0.467493
0.406102
0.352103
0.304824
0.263582
0.227706
0.196554
0.169533
0.146107
0.125805
0.108214
0.0929821
0.0798012
0.0684073
0.0585713
0.0500949
0.0428059
0.036554
0.0312076
0.0266504
0.0227792
0.019503
0.016741
0.0144223
0.0124839
0.0108699
0.00952948
0.00841558
0.00748343
0.0066898
0.00599323
0.00535527
0.00474153
0.00412167
0.00347034
0.00277645
0.00205313
0.0012263
0.000382603
0.148392
0.444221
0.736892
1.02266
1.29537
1.54672
1.76673
1.94537
2.07466
2.15046
2.17312
2.14715
2.07988
1.98011
1.85687
1.7185
1.57229
1.42421
1.27898
1.1401
1.00997
0.890003
0.780849
0.682561
0.5948
0.516988
0.448405
0.388266
0.33576
0.290076
0.250423
0.216054
0.18628
0.160487
0.138142
0.118787
0.102026
0.0875244
0.0749895
0.0641701
0.0548483
0.0468354
0.0399667
0.0340978
0.0291005
0.0248609
0.0212779
0.0182622
0.0157355
0.0136287
0.0118803
0.010435
0.00924097
0.00824866
0.00740934
0.00667558
0.00600279
0.00535069
0.00468248
0.00396554
0.00318664
0.00236883
0.00141672
0.000438933
0.166952
0.500401
0.832008
1.15827
1.47234
1.76405
2.02056
2.22851
2.37718
2.46109
2.48104
2.44322
2.35738
2.23477
2.0865
1.9226
1.75149
1.57996
1.41323
1.25509
1.10805
0.973441
0.851731
0.742734
0.645869
0.560332
0.485209
0.419548
0.362392
0.312801
0.269863
0.232715
0.200574
0.172749
0.14865
0.127776
0.109701
0.0940612
0.0805438
0.0688778
0.0588291
0.0501948
0.0427987
0.0364854
0.0311164
0.026568
0.0227302
0.019506
0.0168103
0.0145689
0.012716
0.0111925
0.00994288
0.00891341
0.00805027
0.00730003
0.00661173
0.00593872
0.00523681
0.00446421
0.00360507
0.00269316
0.00161245
0.000496707
0.184863
0.554914
0.925236
1.29298
1.65076
1.9863
2.28312
2.52347
2.6929
2.78427
2.79912
2.74605
2.6379
2.48893
2.31268
2.12093
1.92326
1.72718
1.53833
1.36076
1.19697
1.04817
0.914506
0.79549
0.690231
0.597664
0.516661
0.446096
0.384867
0.331902
0.286163
0.246669
0.212538
0.183004
0.157426
0.135268
0.116079
0.0994749
0.0851248
0.0727417
0.0620776
0.0529186
0.0450793
0.0383956
0.0327201
0.02792
0.0238768
0.0204867
0.0176589
0.0153148
0.0133854
0.0118088
0.0105268
0.00948223
0.00861658
0.00787052
0.00718641
0.00651064
0.00579036
0.00497224
0.00403721
0.00302973
0.00181524
0.000556633
0.201852
0.606987
1.01545
1.42559
1.82975
2.21333
2.5553
2.83201
3.02395
3.1219
3.12868
3.05628
2.92153
2.74233
2.53497
2.31303
2.08717
1.8655
1.65399
1.45688
1.27663
1.11417
0.969253
0.84097
0.728066
0.629181
0.542961
0.468105
0.403368
0.347552
0.29949
0.258076
0.222318
0.191383
0.164584
0.141361
0.121245
0.103839
0.088796
0.0758165
0.064641
0.055047
0.0468429
0.0398583
0.0339376
0.0289394
0.0247376
0.0212216
0.0182959
0.0158787
0.0138986
0.0122919
0.0109991
0.00996014
0.00911245
0.00839091
0.00773099
0.00707139
0.00634911
0.00549602
0.0044891
0.00338253
0.00202716
0.000619694
0.217598
0.655696
1.10126
1.55452
2.00803
2.4447
2.83785
3.15596
3.37256
3.47586
3.4709
3.37433
3.20808
2.99444
2.75274
2.4983
2.24273
1.99454
1.75993
1.54328
1.34696
1.1715
1.01611
0.879376
0.75961
0.655128
0.564349
0.485802
0.418107
0.359952
0.310037
0.267113
0.230077
0.198029
0.17025
0.146162
0.125293
0.107233
0.0916262
0.0781618
0.0665706
0.0566237
0.0481268
0.0409056
0.0347971
0.0296512
0.0253342
0.0217295
0.0187375
0.0162739
0.0142663
0.0126506
0.0113665
0.0103524
0.00954202
0.00886478
0.0082492
0.00762571
0.00691916
0.00604245
0.00496755
0.0037561
0.0022509
0.000687333
0.231747
0.700003
1.18105
1.67784
2.18387
2.6796
3.13146
3.49738
3.74124
3.84811
3.82677
3.70029
3.49704
3.24449
2.96518
2.67606
2.38945
2.11396
1.85588
1.61978
1.40793
1.22026
1.05528
0.910966
0.785147
0.675791
0.581098
0.499436
0.429312
0.369314
0.318008
0.273976
0.235992
0.203098
0.174554
0.149784
0.128316
0.109739
0.0936866
0.0798397
0.0679196
0.0576937
0.0489693
0.0415709
0.0353282
0.0300815
0.0256896
0.0220302
0.0190003
0.0165144
0.0144999
0.0128936
0.0116359
0.0106642
0.00990918
0.00929518
0.00874419
0.00817788
0.00750671
0.00661912
0.00548037
0.00415576
0.00248996
0.00076159
0.243924
0.738788
1.25299
1.79327
2.35506
2.91682
3.43675
3.85863
4.13281
4.24061
4.19709
4.034
3.78758
3.49145
3.17137
2.84558
2.52682
2.22344
1.94161
1.68625
1.45954
1.2606
1.08701
0.936053
0.805007
0.691488
0.593503
0.509277
0.437222
0.37586
0.323617
0.278869
0.240244
0.206745
0.177631
0.152337
0.13041
0.111439
0.0950491
0.080913
0.0687422
0.0583023
0.0494086
0.0418879
0.0355608
0.0302569
0.0258272
0.022144
0.0191016
0.0166145
0.014611
0.01303
0.0118142
0.0109008
0.0102175
0.00968454
0.00921825
0.00873152
0.00811799
0.00723441
0.00603655
0.0045877
0.00274861
0.000845066
0.253755
0.770903
1.31514
1.89818
2.51891
3.15468
3.75423
4.24253
4.55054
4.65535
4.58242
4.37495
4.07854
3.73406
3.37027
3.00611
2.65444
2.32275
2.01693
1.74256
1.50185
1.29276
1.11163
0.954994
0.819557
0.702562
0.601879
0.515601
0.442074
0.379809
0.327085
0.282002
0.243017
0.209127
0.17961
0.15393
0.131667
0.112413
0.0957838
0.0814438
0.0690921
0.058494
0.0494819
0.0418893
0.0355247
0.0302038
0.0257703
0.022091
0.0190584
0.0165883
0.0146111
0.0130686
0.011908
0.0110672
0.0104702
0.0100345
0.00967272
0.00928944
0.00875917
0.00789775
0.00664658
0.00505898
0.00303157
0.000940601
0.260889
0.795229
1.36549
1.9897
2.67216
3.39089
4.08434
4.65252
4.99832
5.09427
4.983
4.72231
4.36841
3.9709
3.5608
3.15689
2.77197
2.4118
2.08168
1.78862
1.53498
1.31701
1.12948
0.96819
0.829195
0.70937
0.606548
0.518692
0.444102
0.381375
0.328635
0.28359
0.244496
0.210398
0.180619
0.154665
0.132176
0.112741
0.0959586
0.0814931
0.0690222
0.058311
0.0492238
0.0416066
0.0352488
0.0299479
0.0255416
0.0218911
0.0188874
0.0164498
0.014511
0.0130177
0.0119237
0.011168
0.0106703
0.0103461
0.0101078
0.00985331
0.00943623
0.00861984
0.00732253
0.00557727
0.00334304
0.00105059
0.265015
0.81074
1.40205
2.06471
2.81098
3.62242
4.4273
5.0929
5.48081
5.55907
5.39865
5.07491
4.65531
4.20037
3.74191
3.2972
2.87921
2.49064
2.13576
1.82429
1.55908
1.33374
1.14098
0.976079
0.834346
0.712274
0.607839
0.518832
0.443522
0.380756
0.328488
0.283854
0.244859
0.210705
0.180779
0.154639
0.13202
0.112495
0.0956373
0.0811201
0.0685842
0.0577927
0.0486661
0.0410698
0.0347616
0.0295141
0.0251632
0.0215634
0.0186043
0.0162123
0.0143217
0.012885
0.0118672
0.0112083
0.0108203
0.0106192
0.0105225
0.0104234
0.0101547
0.00941305
0.00807829
0.00615028
0.00368541
0.00117598
0.265892
0.81657
1.42297
2.12001
2.93095
3.84531
4.78299
5.56916
6.0037
6.05101
5.82869
5.43132
4.9369
4.42075
3.9126
3.4263
2.97615
2.55954
2.17905
1.84939
1.57435
1.34341
1.14657
0.979124
0.835459
0.711627
0.60608
0.516307
0.440531
0.378126
0.326872
0.283023
0.244275
0.210185
0.180204
0.153935
0.131274
0.111745
0.0948789
0.0803818
0.067829
0.0569753
0.0478365
0.0403071
0.0340905
0.028926
0.0246563
0.0211264
0.0182243
0.0158885
0.0140532
0.0126776
0.0117437
0.0111928
0.010923
0.0108532
0.0109147
0.0109983
0.0109192
0.0102919
0.00892969
0.00678486
0.00405756
0.00131504
0.263362
0.812076
1.42666
2.15239
3.02707
4.05442
5.15069
6.08841
6.574
6.57046
6.27185
5.78996
5.21036
4.63029
4.0721
3.54343
3.06297
2.61907
2.2114
1.86365
1.5811
1.34659
1.1467
0.977813
0.833007
0.707764
0.6016
0.511408
0.435292
0.373632
0.324019
0.281333
0.242899
0.208966
0.179003
0.152627
0.130009
0.110559
0.0937359
0.0793337
0.0668076
0.0558901
0.0467581
0.0393452
0.0332627
0.0282054
0.0240408
0.0205978
0.0177608
0.0154907
0.0137157
0.0124016
0.011558
0.011127
0.0109812
0.0110461
0.0112809
0.0115743
0.0117326
0.0112738
0.00989487
0.00748572
0.00445315
0.00146236
0.257365
0.796892
1.41187
2.15881
3.09381
4.24315
5.52872
6.65993
7.20051
7.11626
6.7262
6.14934
5.47217
4.82729
4.21997
3.64765
3.14015
2.67016
2.23257
1.86664
1.57972
1.344
1.14177
0.972649
0.827492
0.70097
0.594725
0.504438
0.427928
0.367375
0.320175
0.279039
0.240863
0.207165
0.177279
0.150769
0.128289
0.109002
0.0922523
0.0780299
0.065572
0.0545632
0.045448
0.0382098
0.0323054
0.0273722
0.0233357
0.0199945
0.0172261
0.0150306
0.0133187
0.0120618
0.0113138
0.0110166
0.0109982
0.0111954
0.011617
0.0121455
0.0125951
0.01238
0.0109948
0.00825374
0.00485938
0.0016083
0.247952
0.770965
1.37781
2.13661
3.12531
4.4032
5.91372
7.29599
7.89435
7.68468
7.18918
6.50844
5.71789
5.01024
4.35628
3.7377
3.20845
2.71428
2.2421
1.85767
1.57075
1.33654
1.13214
0.964155
0.819461
0.691459
0.585784
0.495728
0.418506
0.359405
0.315608
0.276422
0.238261
0.204884
0.175136
0.148397
0.126173
0.107141
0.0904601
0.0765243
0.064178
0.0530134
0.0439161
0.0369263
0.0312463
0.0264428
0.0225587
0.0193333
0.0166302
0.0145193
0.0128722
0.0116618
0.0110137
0.010869
0.0109781
0.0112969
0.0119184
0.0127032
0.0135018
0.0136369
0.0122547
0.009084
0.00525655
0.00173947
0.235279
0.734583
1.32427
2.08367
3.1155
4.52425
6.29979
8.01283
8.66984
8.26803
7.65779
6.86726
5.94163
5.17798
4.48194
3.81164
3.26909
2.75357
2.2392
1.83572
1.55499
1.32536
1.11797
0.952872
0.809529
0.679323
0.575118
0.485661
0.407019
0.349695
0.310627
0.273799
0.235131
0.202218
0.172685
0.145517
0.123721
0.105045
0.0883748
0.0748722
0.0626877
0.0512503
0.0421643
0.0355214
0.0301154
0.0254297
0.0217269
0.0186307
0.0159802
0.013968
0.0123866
0.0112032
0.0106587
0.0106928
0.0109264
0.0113445
0.0121809
0.0132359
0.0144409
0.0150775
0.0137055
0.00996336
0.00561867
0.00184021
0.219605
0.688366
1.25165
1.99869
3.05852
4.59377
6.67704
8.83207
9.54555
8.85248
8.12894
7.22773
6.13532
5.33006
4.59904
3.86636
3.32382
2.79114
2.22251
1.79932
1.53353
1.31194
1.09914
0.939388
0.798421
0.664473
0.563092
0.4747
0.393367
0.338128
0.305603
0.271544
0.231429
0.199257
0.170057
0.142096
0.120992
0.102796
0.0859875
0.0731323
0.0611735
0.0492714
0.0401842
0.0340247
0.0289456
0.0243391
0.0208568
0.0179043
0.0152795
0.0133878
0.0118734
0.0106856
0.0102474
0.0104992
0.0108504
0.0113296
0.0124021
0.0137299
0.0153891
0.0167442
0.015387
0.0108677
0.00591524
0.00189527
0.201274
0.633243
1.16098
1.88132
2.94912
4.59703
7.02966
9.78238
10.5458
9.41513
8.60028
7.59477
6.28754
5.46712
4.71139
3.89686
3.37518
2.83136
2.18984
1.74641
1.50798
1.29815
1.07507
0.924374
0.787034
0.646547
0.550128
0.463432
0.377318
0.324464
0.300997
0.270106
0.226989
0.196096
0.167413
0.138042
0.118056
0.100492
0.0832542
0.0713711
0.059724
0.0470574
0.0379557
0.0324713
0.0277746
0.0231683
0.0199653
0.0171734
0.0145261
0.0127907
0.0113462
0.0101053
0.00977582
0.0103031
0.01076
0.0112393
0.0125825
0.0141703
0.016307
0.0186912
0.017352
0.0117587
0.00611357
0.00189284
0.180697
0.570407
1.05393
1.7324
2.78321
4.51729
7.33316
10.9017
11.7029
9.92003
9.0714
7.97788
6.38183
5.59155
4.82521
3.89521
3.42678
2.88026
2.13775
1.67423
1.4806
1.28643
1.04446
0.908653
0.77652
0.624781
0.536735
0.452621
0.358476
0.308312
0.297396
0.270041
0.221465
0.192852
0.164969
0.133182
0.115001
0.098262
0.0800801
0.0696675
0.0584501
0.0445667
0.0354453
0.030905
0.0266474
0.0219024
0.019071
0.0164605
0.0137105
0.0121901
0.0108217
0.00945522
0.00923551
0.0101233
0.0106687
0.011054
0.0127283
0.0145426
0.0171321
0.0209883
0.0196711
0.012579
0.0061812
0.00182738
0.158328
0.501251
0.93274
1.55403
2.55855
4.33656
7.55077
12.2398
13.0594
10.3127
9.54583
8.39303
6.39427
5.70841
4.95004
3.84914
3.48382
2.94609
2.06105
1.57919
1.45453
1.27989
1.00498
0.893308
0.768398
0.597839
0.523579
0.443277
0.336223
0.289091
0.295559
0.272045
0.214267
0.189693
0.163019
0.127228
0.111949
0.0962752
0.0762988
0.0681215
0.0574936
0.0417275
0.0326045
0.0293821
0.0256184
0.0205086
0.0181958
0.0157935
0.0128126
0.0116022
0.010321
0.00872386
0.00861289
0.00998504
0.0105948
0.0107449
0.0128538
0.0148357
0.0177698
0.0237259
0.022439
0.0132471
0.0060875
0.00170097
0.134641
0.427292
0.80009
1.3496
2.27535
4.03685
7.62859
13.8617
14.6721
10.5135
10.0339
8.86501
6.29025
5.82677
5.09984
3.74017
3.55375
3.03986
1.95212
1.45679
1.43408
1.28256
0.952844
0.879848
0.764702
0.563589
0.51156
0.436728
0.309662
0.265988
0.296469
0.277005
0.204461
0.186868
0.161969
0.119728
0.109073
0.0947613
0.0716443
0.0668645
0.0570368
0.0384276
0.0293686
0.0279755
0.024755
0.0189299
0.0173681
0.0152078
0.0117984
0.0110473
0.00987099
0.00789405
0.00788739
0.00992073
0.0105632
0.0102693
0.0129849
0.0150467
0.018082
0.0270206
0.0257818
0.0136487
0.00580411
0.00152257
0.110105
0.350089
0.658983
1.12371
1.93701
3.60235
7.48957
15.8514
16.6163
10.4081
10.5565
9.43021
6.02023
5.96144
5.29438
3.54122
3.64724
3.17602
1.80013
1.30159
1.42499
1.29957
0.882269
0.870426
0.768149
0.518807
0.501937
0.434708
0.277534
0.237913
0.301393
0.286054
0.190652
0.18477
0.162376
0.110008
0.106625
0.0940306
0.0657146
0.0660751
0.0573133
0.034502
0.0256564
0.0267799
0.0241415
0.0170769
0.0166262
0.0147497
0.0106144
0.0105518
0.00950616
0.00694206
0.00702955
0.00997222
0.0106076
0.00956476
0.0131632
0.0151866
0.0178725
0.0310234
0.0298646
0.0136261
0.00530441
0.00130467
0.0851675
0.27117
0.51256
0.881927
1.55049
3.02265
7.0259
18.316
18.9912
9.83761
11.1508
10.1397
5.51438
6.13537
5.56084
3.2136
3.77944
3.37321
1.58997
1.10726
1.43475
1.33745
0.784837
0.868143
0.782347
0.458816
0.496483
0.439445
0.23813
0.203456
0.311944
0.300639
0.170837
0.183994
0.164989
0.0970964
0.104972
0.094499
0.0579273
0.0659989
0.0586194
0.0297174
0.0213712
0.0259163
0.0238833
0.0148168
0.0160233
0.0144796
0.00918171
0.0101514
0.00927021
0.00583634
0.00599888
0.0101926
0.0107733
0.00854222
0.0134498
0.0152896
0.0168689
0.0359291
0.0348998
0.0129636
0.00456363
0.00105842
0.0602346
0.191956
0.363926
0.630496
1.12657
2.29723
6.08996
21.3906
21.927
8.58454
11.8765
11.0627
4.67606
6.3827
5.93564
2.70345
3.97173
3.65497
1.30112
0.866686
1.47284
1.40451
0.648699
0.87743
0.812026
0.377044
0.497694
0.453746
0.189193
0.160836
0.330147
0.322611
0.142231
0.185437
0.1708
0.0796312
0.104638
0.096716
0.0474649
0.0669747
0.0613265
0.0237536
0.0164031
0.0255366
0.0241132
0.0119618
0.0156338
0.0144758
0.00738839
0.00989436
0.00921775
0.00453637
0.00474135
0.0106481
0.0111216
0.00707697
0.013931
0.0154241
0.0147008
0.0419881
0.0411551
0.0113694
0.00356229
0.0007888
0.0356632
0.113708
0.215978
0.375878
0.679486
1.44147
4.48354
25.2439
25.5928
6.35798
12.8245
12.2901
3.37412
6.75253
6.46639
1.93742
4.25372
4.05046
0.90627
0.572336
1.55103
1.51119
0.457664
0.904532
0.863286
0.264508
0.509051
0.481077
0.1278
0.107866
0.358502
0.354321
0.101058
0.190403
0.181096
0.0557503
0.10636
0.101396
0.0332108
0.0694669
0.065892
0.0161832
0.0106342
0.0258276
0.0249976
0.00825398
0.0155609
0.0148396
0.00508074
0.00984596
0.00941573
0.00299155
0.00318677
0.0114201
0.011734
0.00499822
0.014722
0.0157068
0.0108739
0.0495203
0.0489624
0.00845365
0.00229752
0.000493333
0.0117505
0.0374799
0.0712534
0.124276
0.226049
0.494273
1.94574
30.0829
30.2056
2.77585
14.1271
13.9378
1.43411
7.31352
7.21393
0.817935
4.66595
4.59503
0.369828
0.216666
1.68342
1.67056
0.19017
0.958076
0.943853
0.109223
0.535336
0.525622
0.0502494
0.0419196
0.400038
0.398741
0.0423181
0.200738
0.19751
0.0229676
0.111154
0.10945
0.0136765
0.0741054
0.0728691
0.00644787
0.00394534
0.027013
0.0267442
0.00334884
0.015946
0.0156992
0.00205307
0.0100939
0.00994443
0.00114031
0.00124604
0.0126065
0.0127184
0.00207712
0.015972
0.0163205
0.00474071
0.058931
0.0587259
0.00370459
0.000807503
0.000168231
)
;

boundaryField
{
    left
    {
        type            calculated;
        value           uniform 0;
    }
    right
    {
        type            calculated;
        value           uniform 0;
    }
    interface
    {
        type            calculated;
        value           nonuniform List<scalar> 
64
(
0.0117505
0.0374799
0.0712534
0.124276
0.226049
0.494273
1.94574
30.0829
30.2056
2.77585
14.1271
13.9378
1.43411
7.31352
7.21393
0.817935
4.66595
4.59503
0.369828
0.216666
1.68342
1.67056
0.19017
0.958076
0.943853
0.109223
0.535336
0.525622
0.0502494
0.0419196
0.400038
0.398741
0.0423181
0.200738
0.19751
0.0229676
0.111154
0.10945
0.0136765
0.0741054
0.0728691
0.00644787
0.00394534
0.027013
0.0267442
0.00334884
0.015946
0.0156992
0.00205307
0.0100939
0.00994443
0.00114031
0.00124604
0.0126065
0.0127184
0.00207712
0.015972
0.0163205
0.00474071
0.058931
0.0587259
0.00370459
0.000807503
0.000168231
)
;
    }
    bottom
    {
        type            calculated;
        value           nonuniform List<scalar> 
64
(
0.0104809
0.031264
0.0515232
0.0708767
0.0889053
0.10519
0.119311
0.130895
0.139666
0.145474
0.148314
0.14833
0.145789
0.141056
0.134548
0.126702
0.11794
0.10865
0.0991657
0.0897645
0.0806619
0.0720164
0.0639354
0.0564824
0.0496857
0.0435464
0.0380458
0.0331511
0.0288209
0.0250085
0.0216656
0.0187435
0.0161958
0.0139789
0.0120527
0.0103812
0.00893227
0.00767761
0.00659238
0.00565491
0.00484629
0.00415002
0.0035517
0.00303875
0.00260011
0.00222606
0.00190804
0.00163848
0.00141066
0.00121863
0.001057
0.000920944
0.000806029
0.000708175
0.000623617
0.0005489
0.000480933
0.000417055
0.000355098
0.000293408
0.000230792
0.000166491
0.000100457
3.35297e-05
)
;
    }
    defaultFaces
    {
        type            empty;
    }
}


// ************************************************************************* //
