/*--------------------------------*- C++ -*----------------------------------*\
| =========                 |                                                 |
| \\      /  F ield         | OpenFOAM: The Open Source CFD Toolbox           |
|  \\    /   O peration     | Version:  5.x                                   |
|   \\  /    A nd           | Web:      www.OpenFOAM.org                      |
|    \\/     M anipulation  |                                                 |
\*---------------------------------------------------------------------------*/
FoamFile
{
    version     2.0;
    format      ascii;
    class       volScalarField;
    location    "1";
    object      T;
}
// * * * * * * * * * * * * * * * * * * * * * * * * * * * * * * * * * * * * * //

dimensions      [0 0 0 1 0 0 0];

internalField   nonuniform List<scalar> 
2048
(
9.8181
9.81842
9.81907
9.82003
9.82129
9.82281
9.82458
9.82654
9.82867
9.83091
9.83321
9.83554
9.83785
9.8401
9.84226
9.8443
9.84622
9.84799
9.84961
9.85109
9.85242
9.85361
9.85467
9.8556
9.85643
9.85716
9.85779
9.85835
9.85883
9.85925
9.85961
9.85992
9.8602
9.86043
9.86063
9.86081
9.86096
9.86109
9.8612
9.86129
9.86137
9.86144
9.8615
9.86155
9.8616
9.86164
9.86167
9.8617
9.86172
9.86174
9.86176
9.86177
9.86179
9.8618
9.86181
9.86182
9.86183
9.86183
9.86184
9.86184
9.86185
9.86185
9.86185
9.86185
9.46198
9.46296
9.46489
9.46774
9.47147
9.476
9.48124
9.48709
9.49341
9.50007
9.50693
9.51384
9.5207
9.52737
9.53377
9.53984
9.5455
9.55075
9.55555
9.55991
9.56383
9.56735
9.57047
9.57324
9.57567
9.57781
9.57968
9.58131
9.58273
9.58396
9.58503
9.58595
9.58675
9.58744
9.58803
9.58855
9.58899
9.58937
9.58969
9.58997
9.59021
9.59042
9.59059
9.59074
9.59087
9.59098
9.59108
9.59116
9.59123
9.59129
9.59134
9.59138
9.59142
9.59146
9.59149
9.59151
9.59154
9.59156
9.59158
9.59159
9.5916
9.59161
9.59162
9.59162
9.12073
9.12233
9.12551
9.13022
9.13636
9.14384
9.1525
9.16215
9.17259
9.18358
9.19489
9.2063
9.21758
9.22856
9.23908
9.24902
9.25831
9.26688
9.27472
9.28183
9.28823
9.29395
9.29903
9.30352
9.30747
9.31094
9.31396
9.3166
9.3189
9.32089
9.32261
9.32411
9.3254
9.32651
9.32747
9.3283
9.32901
9.32962
9.33015
9.3306
9.33099
9.33132
9.3316
9.33185
9.33205
9.33223
9.33238
9.33251
9.33262
9.33272
9.3328
9.33288
9.33294
9.333
9.33305
9.33309
9.33313
9.33316
9.33319
9.33322
9.33324
9.33325
9.33326
9.33327
8.79333
8.79555
8.79996
8.80649
8.81503
8.82543
8.83748
8.85092
8.86545
8.88076
8.89649
8.91234
8.92799
8.94319
8.95773
8.97144
8.98422
8.996
9.00675
9.01648
9.02521
9.03301
9.03993
9.04604
9.0514
9.0561
9.06021
9.06378
9.06689
9.06958
9.07191
9.07393
9.07567
9.07718
9.07848
9.07959
9.08055
9.08138
9.08209
9.0827
9.08322
9.08367
9.08405
9.08437
9.08465
9.08489
9.0851
9.08527
9.08542
9.08555
9.08566
9.08576
9.08585
9.08592
9.08599
9.08605
9.0861
9.08615
9.08619
9.08622
9.08625
9.08627
9.08628
9.08629
8.47888
8.48171
8.48734
8.49569
8.50662
8.51995
8.5354
8.55265
8.57131
8.59096
8.61113
8.63141
8.65141
8.67079
8.68927
8.70666
8.72283
8.73769
8.75122
8.76343
8.77438
8.78413
8.79276
8.80037
8.80705
8.81289
8.81798
8.82241
8.82625
8.82959
8.83247
8.83497
8.83712
8.83898
8.84058
8.84196
8.84314
8.84416
8.84504
8.84579
8.84643
8.84698
8.84745
8.84785
8.8482
8.84849
8.84874
8.84896
8.84914
8.8493
8.84944
8.84956
8.84967
8.84976
8.84984
8.84992
8.84998
8.85004
8.85009
8.85013
8.85017
8.85019
8.85021
8.85022
8.17659
8.18003
8.18688
8.19704
8.21037
8.22664
8.24555
8.26668
8.28954
8.31358
8.33826
8.36301
8.38736
8.41089
8.43327
8.45426
8.47371
8.49153
8.50772
8.52229
8.53531
8.54688
8.5571
8.56609
8.57396
8.58084
8.58683
8.59204
8.59655
8.60046
8.60384
8.60676
8.60928
8.61145
8.61333
8.61494
8.61633
8.61752
8.61854
8.61942
8.62017
8.62081
8.62136
8.62182
8.62222
8.62257
8.62286
8.62311
8.62333
8.62351
8.62367
8.62381
8.62394
8.62405
8.62415
8.62423
8.62431
8.62438
8.62444
8.62449
8.62453
8.62456
8.62459
8.6246
7.88576
7.8898
7.89785
7.90982
7.92557
7.94483
7.96726
7.99235
8.01952
8.04808
8.07735
8.10664
8.13537
8.16305
8.18928
8.2138
8.23643
8.25711
8.27582
8.2926
8.30757
8.32082
8.3325
8.34275
8.35172
8.35953
8.36632
8.37222
8.37733
8.38175
8.38556
8.38886
8.39171
8.39416
8.39627
8.39809
8.39965
8.401
8.40215
8.40313
8.40398
8.4047
8.40532
8.40584
8.40629
8.40668
8.407
8.40728
8.40753
8.40774
8.40792
8.40808
8.40821
8.40834
8.40845
8.40855
8.40864
8.40871
8.40878
8.40884
8.40889
8.40893
8.40896
8.40897
7.60574
7.61037
7.61962
7.6334
7.65158
7.67388
7.69991
7.72909
7.7607
7.79393
7.82791
7.86184
7.895
7.92683
7.95688
7.98486
8.01059
8.03399
8.05509
8.07396
8.09072
8.10552
8.11853
8.12992
8.13986
8.14851
8.15602
8.16252
8.16815
8.17302
8.17722
8.18084
8.18397
8.18666
8.18898
8.19098
8.1927
8.19417
8.19543
8.19651
8.19744
8.19823
8.1989
8.19948
8.19997
8.20038
8.20074
8.20105
8.20131
8.20154
8.20174
8.20191
8.20207
8.2022
8.20232
8.20243
8.20253
8.20262
8.2027
8.20277
8.20282
8.20287
8.2029
8.20291
7.33597
7.34118
7.35161
7.36719
7.3878
7.4132
7.44293
7.47634
7.51257
7.55062
7.58948
7.62816
7.66583
7.70183
7.73566
7.76703
7.79575
7.82176
7.84512
7.86593
7.88434
7.90055
7.91476
7.92717
7.93797
7.94735
7.95548
7.96252
7.96859
7.97384
7.97837
7.98227
7.98564
7.98854
7.99104
7.99319
7.99503
7.99661
7.99797
7.99913
8.00012
8.00097
8.00169
8.00231
8.00283
8.00328
8.00366
8.00399
8.00427
8.00452
8.00473
8.00491
8.00508
8.00522
8.00536
8.00548
8.00558
8.00568
8.00577
8.00585
8.00591
8.00596
8.00599
8.00601
7.07594
7.08172
7.09328
7.11063
7.13369
7.16222
7.19576
7.23357
7.27462
7.31772
7.36163
7.40519
7.44744
7.48763
7.52522
7.5599
7.5915
7.62
7.64547
7.66807
7.688
7.70548
7.72075
7.73406
7.74561
7.75563
7.76429
7.77177
7.77823
7.7838
7.7886
7.79274
7.79631
7.79938
7.80203
7.8043
7.80625
7.80793
7.80936
7.81059
7.81164
7.81253
7.81329
7.81394
7.81449
7.81496
7.81536
7.81571
7.816
7.81626
7.81648
7.81668
7.81685
7.81701
7.81715
7.81728
7.81739
7.8175
7.8176
7.81768
7.81775
7.81781
7.81785
7.81786
6.8252
6.83151
6.84417
6.86325
6.88872
6.92042
6.95789
7.00028
7.04639
7.09478
7.14395
7.19255
7.23946
7.28385
7.32516
7.36306
7.39744
7.42829
7.45573
7.47997
7.50126
7.51987
7.53608
7.55016
7.56236
7.57291
7.58202
7.58988
7.59665
7.60248
7.60751
7.61184
7.61558
7.61879
7.62156
7.62393
7.62597
7.62772
7.62922
7.6305
7.63159
7.63252
7.63331
7.63398
7.63455
7.63504
7.63546
7.63581
7.63612
7.63639
7.63662
7.63682
7.637
7.63716
7.63731
7.63745
7.63758
7.63769
7.6378
7.63789
7.63797
7.63803
7.63807
7.63809
6.58335
6.59015
6.60384
6.62457
6.65242
6.68732
6.72882
6.776
6.82744
6.88139
6.93606
6.98986
7.04151
7.09011
7.13509
7.17613
7.21316
7.24622
7.27549
7.30122
7.32372
7.34331
7.36033
7.37506
7.38781
7.3988
7.40828
7.41644
7.42346
7.4295
7.43471
7.43919
7.44306
7.44638
7.44924
7.4517
7.45381
7.45562
7.45716
7.45848
7.45961
7.46056
7.46137
7.46207
7.46265
7.46315
7.46358
7.46394
7.46426
7.46453
7.46477
7.46498
7.46516
7.46533
7.46549
7.46563
7.46576
7.46589
7.466
7.4661
7.46619
7.46626
7.46631
7.46633
6.35003
6.35727
6.3719
6.39418
6.42433
6.46242
6.50807
6.56028
6.61736
6.67719
6.73762
6.79678
6.85325
6.90606
6.95464
6.99872
7.03827
7.07339
7.10433
7.13139
7.15495
7.17539
7.19308
7.20837
7.22155
7.2329
7.24267
7.25106
7.25828
7.26448
7.26982
7.27442
7.27838
7.28179
7.28472
7.28724
7.28941
7.29125
7.29283
7.29418
7.29533
7.2963
7.29713
7.29784
7.29843
7.29894
7.29937
7.29974
7.30006
7.30034
7.30058
7.30079
7.30098
7.30115
7.30131
7.30146
7.3016
7.30174
7.30186
7.30197
7.30207
7.30214
7.3022
7.30222
6.1249
6.13253
6.14799
6.17168
6.20403
6.24528
6.29518
6.35268
6.41576
6.48183
6.54828
6.61299
6.67435
6.73135
6.78345
6.83045
6.87238
6.90942
6.94186
6.97009
6.99456
7.0157
7.03395
7.04967
7.0632
7.07483
7.08481
7.09338
7.10073
7.10704
7.11247
7.11715
7.12119
7.12466
7.12765
7.13021
7.13241
7.13429
7.13589
7.13726
7.13842
7.1394
7.14024
7.14095
7.14155
7.14206
7.14249
7.14287
7.14319
7.14346
7.14371
7.14392
7.14411
7.14429
7.14445
7.14461
7.14476
7.1449
7.14503
7.14515
7.14525
7.14534
7.1454
7.14542
5.9077
5.91563
5.93179
5.95673
5.99111
6.03545
6.0897
6.15277
6.22228
6.29497
6.36776
6.43817
6.50447
6.56563
6.62116
6.67095
6.7151
6.7539
6.78769
6.81693
6.84214
6.86386
6.88254
6.8986
6.91239
6.92421
6.93434
6.94302
6.95045
6.95683
6.96232
6.96706
6.97114
6.97465
6.97767
6.98026
6.98248
6.98438
6.98599
6.98737
6.98854
6.98953
6.99037
6.99108
6.99168
6.99219
6.99262
6.99299
6.99331
6.99359
6.99383
6.99404
6.99424
6.99442
6.99458
6.99474
6.9949
6.99504
6.99519
6.99532
6.99543
6.99553
6.99559
6.99562
5.69817
5.70632
5.72302
5.74899
5.7852
5.8325
5.89116
5.96014
6.03656
6.11633
6.19575
6.27205
6.34332
6.40856
6.46741
6.51984
6.56607
6.60646
6.64144
6.67152
6.69733
6.71948
6.73849
6.75478
6.76874
6.78069
6.79091
6.79965
6.80712
6.81353
6.81904
6.8238
6.8279
6.83144
6.83447
6.83708
6.83931
6.84121
6.84283
6.84421
6.84538
6.84637
6.8472
6.8479
6.8485
6.84901
6.84944
6.8498
6.85012
6.85039
6.85063
6.85085
6.85104
6.85122
6.85139
6.85155
6.85171
6.85187
6.85202
6.85216
6.85229
6.85239
6.85247
6.8525
5.49608
5.50436
5.52141
5.54817
5.58594
5.63602
5.69914
5.77437
5.85829
5.94565
6.03201
6.11435
6.1906
6.25983
6.32186
6.37677
6.4249
6.46674
6.50273
6.53348
6.55974
6.58221
6.60142
6.61786
6.63192
6.64393
6.65418
6.66293
6.6704
6.67679
6.68229
6.68705
6.69117
6.69471
6.69775
6.70036
6.70258
6.70448
6.7061
6.70747
6.70863
6.70961
6.71044
6.71113
6.71172
6.71222
6.71264
6.71301
6.71332
6.71359
6.71382
6.71404
6.71423
6.71441
6.71458
6.71474
6.71491
6.71507
6.71524
6.71539
6.71553
6.71564
6.71572
6.71576
5.30123
5.30953
5.32674
5.354
5.39299
5.44559
5.51316
5.59506
5.6872
5.78268
5.87629
5.96482
6.04602
6.1191
6.18417
6.24137
6.29124
6.33438
6.37122
6.40247
6.42902
6.45167
6.471
6.4875
6.5016
6.51361
6.52384
6.53255
6.53997
6.54632
6.55179
6.55653
6.56063
6.56416
6.5672
6.56979
6.57201
6.5739
6.5755
6.57686
6.57801
6.57898
6.57979
6.58048
6.58105
6.58154
6.58196
6.58231
6.58262
6.58288
6.58311
6.58332
6.58351
6.58369
6.58386
6.58403
6.5842
6.58437
6.58454
6.58471
6.58486
6.58499
6.58508
6.58512
5.11343
5.12166
5.1388
5.16624
5.20607
5.26084
5.33277
5.42179
5.52303
5.62723
5.72836
5.82323
5.90929
5.98605
6.05399
6.1133
6.16472
6.20902
6.24657
6.27813
6.30481
6.32754
6.34689
6.36337
6.37744
6.3894
6.39956
6.4082
6.41554
6.42181
6.42722
6.43193
6.43601
6.43952
6.44254
6.44512
6.44731
6.44918
6.45077
6.45211
6.45324
6.4542
6.45499
6.45566
6.45622
6.4567
6.4571
6.45745
6.45775
6.458
6.45823
6.45843
6.45862
6.45879
6.45897
6.45914
6.45931
6.45949
6.45967
6.45986
6.46002
6.46016
6.46026
6.4603
4.93251
4.94056
4.95742
4.98468
5.02488
5.08136
5.15748
5.25413
5.3656
5.47915
5.58798
5.68934
5.78015
5.86035
5.931
5.99222
6.04499
6.09035
6.12844
6.16012
6.18677
6.20948
6.22877
6.24516
6.25916
6.27102
6.28107
6.28961
6.29683
6.30298
6.30831
6.31299
6.31703
6.32051
6.32351
6.32605
6.32822
6.33006
6.33162
6.33295
6.33406
6.33499
6.33577
6.33641
6.33696
6.33742
6.33782
6.33815
6.33844
6.33869
6.33891
6.33911
6.33929
6.33946
6.33963
6.33981
6.33998
6.34017
6.34036
6.34056
6.34075
6.34091
6.34101
6.34106
4.75833
4.76608
4.78242
4.80913
4.84919
4.9068
4.98679
5.0916
5.21479
5.3383
5.45493
5.56296
5.65832
5.74165
5.81489
5.87778
5.9317
5.97804
6.01652
6.04811
6.07457
6.0972
6.11634
6.13257
6.14647
6.15818
6.16807
6.17649
6.18357
6.18957
6.1948
6.19943
6.20344
6.20688
6.20984
6.21235
6.21448
6.21629
6.21782
6.21912
6.22022
6.22112
6.22187
6.2225
6.22303
6.22347
6.22385
6.22418
6.22446
6.2247
6.22491
6.2251
6.22527
6.22544
6.22561
6.22579
6.22597
6.22616
6.22636
6.22658
6.22679
6.22696
6.22707
6.22713
4.59071
4.59807
4.61367
4.63945
4.67879
4.73681
4.82017
4.93368
5.07057
5.20461
5.32895
5.44392
5.54355
5.62959
5.70536
5.76965
5.82447
5.87181
5.91052
5.94179
5.96789
5.99038
6.00931
6.02532
6.03908
6.05062
6.06031
6.06859
6.07549
6.08131
6.08642
6.09101
6.09497
6.09836
6.10129
6.10376
6.10584
6.10762
6.10912
6.11039
6.11146
6.11235
6.11306
6.11366
6.11417
6.1146
6.11497
6.11528
6.11555
6.11578
6.11599
6.11617
6.11634
6.1165
6.11667
6.11684
6.11703
6.11722
6.11744
6.11768
6.11791
6.1181
6.11822
6.11828
4.42953
4.43639
4.45104
4.47551
4.5135
4.57108
4.65706
4.77974
4.93306
5.07804
5.2097
5.33207
5.43556
5.5238
5.60213
5.66752
5.72295
5.77139
5.81018
5.84084
5.8664
5.88876
5.9074
5.92311
5.93676
5.94806
5.95752
5.96566
5.97236
5.97795
5.98292
5.9875
5.99141
5.99473
5.99764
6.00005
6.00208
6.00383
6.00529
6.00652
6.00757
6.00843
6.00911
6.00968
6.01018
6.01059
6.01094
6.01124
6.0115
6.01172
6.01192
6.01209
6.01225
6.01241
6.01258
6.01275
6.01293
6.01314
6.01336
6.01362
6.01388
6.0141
6.01422
6.01428
4.27462
4.28091
4.29441
4.31719
4.3532
4.40935
4.49686
4.62903
4.80256
4.95859
5.09678
5.22735
5.33412
5.42383
5.50497
5.57106
5.62674
5.67654
5.71522
5.74497
5.7698
5.79209
5.81037
5.82569
5.83925
5.85029
5.85946
5.86748
5.87394
5.87927
5.88408
5.88867
5.89252
5.89577
5.89865
5.901
5.90296
5.90469
5.9061
5.90729
5.90833
5.90916
5.9098
5.91034
5.91082
5.91121
5.91154
5.91183
5.91208
5.91229
5.91248
5.91264
5.91279
5.91295
5.91312
5.91328
5.91347
5.91368
5.91391
5.91419
5.91449
5.91473
5.91486
5.91492
4.12585
4.1315
4.14367
4.16443
4.19781
4.25141
4.33898
4.48057
4.67965
4.84628
4.98966
5.12976
5.23896
5.3292
5.4137
5.47998
5.53543
5.58707
5.62543
5.65388
5.67775
5.70014
5.71795
5.73278
5.74635
5.75705
5.76587
5.77382
5.78002
5.78503
5.78965
5.79432
5.79809
5.80124
5.80412
5.8064
5.80828
5.80999
5.81135
5.81249
5.81353
5.81432
5.81492
5.81543
5.81589
5.81626
5.81657
5.81685
5.81709
5.81728
5.81747
5.81762
5.81776
5.81791
5.81808
5.81824
5.81842
5.81864
5.81888
5.81918
5.81953
5.81979
5.81993
5.81998
3.98306
3.988
3.99872
4.01715
4.04728
4.09711
4.1828
4.33307
4.56529
4.74117
4.88757
5.03948
5.14985
5.2393
5.32824
5.39399
5.44852
5.50286
5.54059
5.56727
5.58994
5.61272
5.62994
5.64413
5.65785
5.66814
5.67653
5.6845
5.69039
5.69501
5.69942
5.70425
5.70792
5.71094
5.71385
5.71604
5.71783
5.71953
5.72083
5.72192
5.72296
5.72371
5.72427
5.72473
5.72518
5.72553
5.72583
5.7261
5.72632
5.7265
5.72668
5.72683
5.72695
5.72709
5.72727
5.72743
5.7276
5.72783
5.72807
5.72838
5.72881
5.72908
5.72922
5.72927
3.84609
3.8503
3.85944
3.8753
3.90162
3.9464
4.02777
4.1848
4.46095
4.6433
4.78949
4.95686
5.06652
5.15343
5.24861
5.3128
5.36549
5.42385
5.46049
5.48486
5.50601
5.52967
5.54609
5.55945
5.57359
5.58335
5.5912
5.59933
5.60485
5.60901
5.61316
5.61827
5.62182
5.62466
5.62766
5.62973
5.6314
5.63313
5.63436
5.63537
5.63645
5.63716
5.63765
5.63807
5.63852
5.63885
5.63911
5.63939
5.63959
5.63976
5.63993
5.64007
5.64018
5.64031
5.64049
5.64064
5.64081
5.64105
5.64128
5.64161
5.64213
5.64242
5.64255
5.6426
3.71479
3.71823
3.72573
3.73882
3.76085
3.79936
3.87342
4.0334
4.36878
4.55266
4.69403
4.88255
4.98872
5.07069
5.17502
5.23614
5.28568
5.35011
5.38493
5.40637
5.42561
5.4509
5.46622
5.47847
5.49342
5.50247
5.50963
5.51816
5.52322
5.52683
5.53065
5.53625
5.53959
5.54221
5.54536
5.54728
5.5488
5.55061
5.55174
5.55267
5.55381
5.55446
5.55488
5.55526
5.55572
5.55601
5.55625
5.55653
5.55672
5.55687
5.55704
5.55716
5.55726
5.55738
5.55757
5.55771
5.55787
5.55813
5.55835
5.55868
5.55932
5.55962
5.55974
5.55978
3.58899
3.59166
3.59747
3.60767
3.62503
3.65613
3.71949
3.87569
4.29186
4.46916
4.59929
4.81762
4.91615
4.98995
5.10788
5.16372
5.20831
5.28183
5.31372
5.33152
5.34832
5.37635
5.39012
5.40088
5.41725
5.42533
5.43158
5.44084
5.44532
5.44829
5.45168
5.45803
5.46107
5.46337
5.46682
5.46853
5.46985
5.47181
5.47281
5.47362
5.47487
5.47545
5.4758
5.47612
5.47661
5.47687
5.47707
5.47737
5.47752
5.47765
5.47784
5.47794
5.47802
5.47813
5.47834
5.47847
5.47861
5.47889
5.47909
5.47941
5.48021
5.4805
5.48061
5.48065
3.46854
3.47042
3.47453
3.48179
3.49424
3.517
3.56603
3.70731
4.23448
4.39253
4.50275
4.76367
4.84846
4.90979
5.04792
5.09528
5.1324
5.2194
5.24662
5.26006
5.2737
5.30609
5.3176
5.32636
5.34502
5.35173
5.3568
5.36729
5.37098
5.3732
5.376
5.38352
5.38609
5.38796
5.39188
5.3933
5.39437
5.39657
5.39739
5.39805
5.39948
5.39997
5.40023
5.40048
5.40102
5.40123
5.4014
5.40172
5.40185
5.40195
5.40216
5.40224
5.4023
5.40239
5.40263
5.40274
5.40286
5.40317
5.40334
5.40363
5.40465
5.40492
5.405
5.40503
3.35324
3.35436
3.3568
3.36111
3.36854
3.38234
3.41359
3.52245
4.20246
4.32223
4.40115
4.72299
4.78521
4.82843
4.99623
5.03051
5.05678
5.16344
5.18335
5.19176
5.20124
5.24023
5.24846
5.25453
5.27673
5.28151
5.28499
5.29741
5.30003
5.30141
5.3034
5.31261
5.31447
5.31577
5.32042
5.32143
5.32216
5.32475
5.32533
5.32579
5.3275
5.32785
5.32801
5.32818
5.32882
5.32896
5.32907
5.32945
5.32954
5.32961
5.32985
5.3299
5.32994
5.33
5.3303
5.33037
5.33045
5.33083
5.33094
5.33117
5.33249
5.3327
5.33275
5.33277
3.24294
3.24331
3.24412
3.24554
3.248
3.2526
3.26344
3.31341
4.20353
4.25733
4.29028
4.6988
4.72584
4.74362
4.95439
4.96905
4.97995
5.11486
5.12354
5.12642
5.13031
5.17903
5.18252
5.18497
5.21246
5.21447
5.21587
5.2312
5.23229
5.23277
5.2336
5.24527
5.24607
5.24659
5.25234
5.25276
5.25306
5.25623
5.25648
5.25666
5.25879
5.25894
5.25899
5.25906
5.25984
5.2599
5.25994
5.2604
5.26043
5.26046
5.26075
5.26077
5.26078
5.26081
5.26118
5.26121
5.26124
5.26171
5.26175
5.26186
5.26359
5.26369
5.26371
5.26372
)
;

boundaryField
{
    left
    {
        type            zeroGradient;
    }
    right
    {
        type            zeroGradient;
    }
    interface
    {
        type            fixedValue;
        value           nonuniform List<scalar> 
64
(
3.18902
3.18902
3.18902
3.18902
3.18902
3.18902
3.18902
3.18902
4.22617
4.22617
4.22617
4.69707
4.69707
4.69707
4.93913
4.93913
4.93913
5.09448
5.09448
5.09448
5.09448
5.15033
5.15033
5.15033
5.18173
5.18173
5.18173
5.19922
5.19922
5.19922
5.19922
5.21266
5.21266
5.21266
5.21922
5.21922
5.21922
5.22284
5.22284
5.22284
5.22528
5.22528
5.22528
5.22528
5.22616
5.22616
5.22616
5.22668
5.22668
5.22668
5.227
5.227
5.227
5.227
5.22742
5.22742
5.22742
5.22795
5.22795
5.22795
5.22998
5.22998
5.22998
5.22998
)
;
    }
    bottom
    {
        type            fixedValue;
        value           uniform 10;
    }
    defaultFaces
    {
        type            empty;
    }
}


// ************************************************************************* //
