/*--------------------------------*- C++ -*----------------------------------*\
| =========                 |                                                 |
| \\      /  F ield         | OpenFOAM: The Open Source CFD Toolbox           |
|  \\    /   O peration     | Version:  5.x                                   |
|   \\  /    A nd           | Web:      www.OpenFOAM.org                      |
|    \\/     M anipulation  |                                                 |
\*---------------------------------------------------------------------------*/
FoamFile
{
    version     2.0;
    format      ascii;
    class       volScalarField;
    location    "1.4";
    object      gradTx;
}
// * * * * * * * * * * * * * * * * * * * * * * * * * * * * * * * * * * * * * //

dimensions      [0 -1 0 1 0 0 0];

internalField   nonuniform List<scalar> 
2048
(
0.014124
0.0421601
0.06956
0.0958565
0.120534
0.143054
0.162873
0.179498
0.192538
0.201758
0.207099
0.208684
0.206803
0.201873
0.194392
0.184897
0.173928
0.161988
0.149531
0.136944
0.124544
0.112575
0.101214
0.0905807
0.0807445
0.071735
0.0635511
0.0561688
0.0495483
0.0436389
0.0383841
0.0337244
0.0296008
0.0259567
0.0227393
0.0199007
0.0173976
0.015192
0.0132501
0.0115425
0.0100432
0.00872928
0.00758041
0.0065785
0.00570725
0.0049519
0.00429903
0.00373641
0.00325282
0.00283796
0.00248235
0.00217717
0.00191422
0.00168582
0.00148483
0.00130463
0.00113925
0.000983499
0.000833043
0.000684534
0.000535591
0.00038479
0.000231797
7.73944e-05
0.0419291
0.125171
0.206559
0.284723
0.358129
0.425156
0.484157
0.533627
0.572378
0.599685
0.61537
0.619819
0.613916
0.598926
0.576365
0.547853
0.515004
0.479331
0.442183
0.404712
0.36785
0.332316
0.298631
0.267138
0.238034
0.211399
0.187223
0.165431
0.1459
0.128476
0.11299
0.0992625
0.0871182
0.0763882
0.066916
0.0585592
0.0511905
0.0446975
0.0389809
0.0339538
0.02954
0.0256721
0.0222905
0.0193418
0.0167781
0.014556
0.0126359
0.0109817
0.00956044
0.00834175
0.00729762
0.00640211
0.00563099
0.00496161
0.00437277
0.00384488
0.00336021
0.00290329
0.00246128
0.00202424
0.00158509
0.00113941
0.000685802
0.000228531
0.0689808
0.205971
0.34003
0.46895
0.590199
0.701036
0.798648
0.880432
0.944325
0.989065
1.01436
1.02088
1.01017
0.984416
0.946206
0.898286
0.843368
0.783976
0.722345
0.660367
0.599565
0.541102
0.485804
0.43421
0.386616
0.343131
0.303718
0.268236
0.236472
0.208164
0.183025
0.160758
0.141069
0.12368
0.108332
0.0947934
0.0828558
0.0723364
0.0630747
0.0549301
0.0477792
0.0415133
0.036036
0.0312612
0.0271113
0.0235159
0.0204108
0.0177374
0.015442
0.0134754
0.0117922
0.0103502
0.00910999
0.00803462
0.00708942
0.00624219
0.00546372
0.00472843
0.0040151
0.00330741
0.00259399
0.00186745
0.00112263
0.000372544
0.0955117
0.285287
0.471258
0.650463
0.819376
0.974066
1.11041
1.22453
1.31334
1.37497
1.40898
1.41642
1.39961
1.36177
1.3067
1.23834
1.16057
1.07694
0.990587
0.904115
0.819612
0.738643
0.662301
0.591274
0.52592
0.466341
0.412449
0.364019
0.320733
0.282212
0.248045
0.217812
0.191098
0.167516
0.146709
0.128356
0.112174
0.0979131
0.0853569
0.0743149
0.0646203
0.0561266
0.0487038
0.0422354
0.0366164
0.0317513
0.0275527
0.0239411
0.0208433
0.0181925
0.0159268
0.013989
0.0123253
0.0108852
0.00962102
0.00848825
0.00744629
0.00645943
0.0054979
0.0045389
0.00356737
0.00257462
0.00154736
0.000511281
0.121661
0.363563
0.601077
0.830593
1.0476
1.24685
1.42268
1.5697
1.68354
1.76159
1.80328
1.81014
1.78545
1.73367
1.65996
1.56961
1.46773
1.35895
1.24729
1.13607
1.0279
0.924715
0.827806
0.737963
0.655553
0.580634
0.513032
0.452417
0.398347
0.350315
0.307777
0.270182
0.236994
0.207712
0.181884
0.159103
0.139017
0.121314
0.105725
0.092016
0.07998
0.0694366
0.0602254
0.0522026
0.045238
0.0392128
0.0340182
0.0295547
0.0257313
0.0224645
0.0196775
0.0172988
0.0152616
0.0135022
0.0119606
0.01058
0.00930838
0.00809977
0.00691537
0.00572535
0.00451114
0.00326549
0.00196391
0.000646652
0.147478
0.440982
0.729903
1.01014
1.27619
1.52134
1.73807
1.91908
2.0584
2.15247
2.20063
2.20506
2.17023
2.10215
2.00755
1.89322
1.7656
1.63044
1.49264
1.35624
1.22433
1.09913
0.98209
0.87403
0.775272
0.685775
0.605249
0.533228
0.469134
0.412316
0.362087
0.317757
0.278662
0.24419
0.213789
0.186978
0.163333
0.142492
0.124137
0.107994
0.0938214
0.0814088
0.070569
0.0611336
0.0529496
0.0458767
0.039786
0.0345597
0.0300898
0.0262776
0.0230327
0.0202706
0.0179121
0.0158815
0.0141065
0.0125184
0.0110537
0.00965537
0.00827514
0.00687515
0.00543318
0.00394582
0.00237605
0.000780276
0.172921
0.517468
0.857753
1.18939
1.50593
1.79896
2.0587
2.27536
2.44094
2.5507
2.60391
2.60364
2.55596
2.46873
2.35054
2.20989
2.0546
1.89159
1.72668
1.56455
1.40874
1.26172
1.12499
0.999332
0.88495
0.781659
0.689011
0.606384
0.533042
0.46818
0.410955
0.36053
0.316107
0.276957
0.242437
0.211989
0.185133
0.161455
0.140597
0.122251
0.106145
0.0920417
0.0797315
0.0690246
0.0597473
0.0517394
0.0448532
0.0389533
0.0339164
0.02963
0.0259909
0.0229033
0.0202768
0.0180242
0.0160616
0.0143081
0.0126884
0.0111341
0.0095863
0.00799785
0.00634242
0.00462234
0.00278784
0.000913689
0.197869
0.592703
0.984261
1.36818
1.7371
2.08067
2.38626
2.64092
2.83392
2.95905
3.01559
3.00792
2.94414
2.83444
2.68959
2.51996
2.33488
2.14242
1.9493
1.76084
1.58098
1.41234
1.2564
1.11381
0.984567
0.868293
0.764346
0.671924
0.590121
0.517967
0.454453
0.39858
0.349409
0.306093
0.267899
0.234203
0.204471
0.17825
0.155147
0.134822
0.116979
0.101359
0.0877327
0.0758922
0.0656453
0.0568133
0.0492306
0.0427454
0.0372198
0.0325288
0.0285584
0.0252025
0.0223608
0.0199357
0.0178317
0.015956
0.0142207
0.0125454
0.0108593
0.00910403
0.00724861
0.00530238
0.00320365
0.00104845
0.222114
0.666127
1.10869
1.54584
1.96947
2.36697
2.72217
3.01792
3.23991
3.38006
3.43787
3.41953
3.33586
3.1999
3.02498
2.8235
2.60634
2.38275
2.16028
1.9449
1.74088
1.55089
1.37629
1.21748
1.07419
0.945779
0.831373
0.729977
0.640507
0.561818
0.492725
0.432054
0.378711
0.331731
0.290297
0.253725
0.221442
0.192959
0.167856
0.145768
0.126376
0.109404
0.0946092
0.0817678
0.0706713
0.0611231
0.0529403
0.0459552
0.0400167
0.0349885
0.0307472
0.0271784
0.0241731
0.0216241
0.0194249
0.0174705
0.0156599
0.0138999
0.0121056
0.0102053
0.00816234
0.00599383
0.00362804
0.00118615
0.245378
0.73696
1.22993
1.72128
2.20234
2.65799
3.06758
3.40842
3.66143
3.81616
3.87267
3.83977
3.7318
3.56534
3.35665
3.12029
2.86873
2.61228
2.35935
2.11648
1.88824
1.67728
1.48468
1.31046
1.15399
1.0143
0.890292
0.780744
0.684398
0.599934
0.525974
0.461152
0.404204
0.354047
0.309787
0.270693
0.236164
0.205686
0.178815
0.155165
0.134402
0.116234
0.10041
0.086694
0.074863
0.0647026
0.0560123
0.0486094
0.0423301
0.0370286
0.0325738
0.0288447
0.0257252
0.0230996
0.0208506
0.0188609
0.0170162
0.0152086
0.0133375
0.0113142
0.00909505
0.00670509
0.00406585
0.00132853
0.267312
0.804212
1.34654
1.89293
2.43453
2.95345
3.42345
3.81449
4.10104
4.26972
4.32173
4.2696
4.13228
3.93064
3.68425
3.40994
3.12164
2.83066
2.54615
2.2753
2.02292
1.7915
1.58165
1.39291
1.22418
1.07413
0.941368
0.824483
0.722045
0.632559
0.554447
0.486115
0.426117
0.373248
0.32655
0.285265
0.248773
0.216548
0.188127
0.163106
0.141135
0.121916
0.105192
0.0907207
0.0782649
0.0675917
0.0584828
0.0507399
0.0441876
0.0386724
0.0340575
0.0302172
0.0270302
0.0243734
0.0221188
0.0201369
0.0182994
0.0164828
0.0145677
0.0124442
0.0100591
0.00744506
0.00452217
0.00147748
0.287511
0.866716
1.45676
2.05876
2.66433
3.25267
3.7906
4.23832
4.56147
4.74309
4.78657
4.70966
4.53721
4.29531
4.00716
3.69185
3.3646
3.03748
2.72035
2.42108
2.14478
1.89355
1.66737
1.46511
1.28509
1.12559
0.984922
0.861499
0.753731
0.659972
0.578421
0.507219
0.444705
0.389562
0.340787
0.297611
0.259418
0.225675
0.195906
0.169689
0.146662
0.126522
0.109016
0.0939022
0.0809262
0.0698352
0.0603917
0.0523819
0.0456199
0.0399459
0.0352195
0.0313131
0.0281023
0.0254572
0.0232397
0.0213076
0.0195191
0.0177335
0.0158094
0.0136094
0.0110679
0.0082232
0.00500243
0.00163515
0.30553
0.923161
1.55852
2.21632
2.88951
3.55452
4.16974
4.68232
5.04573
5.23869
5.26853
5.16023
4.94612
4.65855
4.32457
3.96532
3.59708
3.23233
2.88156
2.55354
2.25368
1.98351
1.74206
1.52736
1.33709
1.16905
1.02132
0.892125
0.779764
0.682469
0.598199
0.52476
0.460244
0.403233
0.352705
0.307907
0.268249
0.2332
0.202267
0.175018
0.151071
0.130128
0.111948
0.0962953
0.0828986
0.0714802
0.0617818
0.0535735
0.0466595
0.0408762
0.0360823
0.0321504
0.0289559
0.0263632
0.0242231
0.0223816
0.0206836
0.0189707
0.0170755
0.014825
0.0121359
0.00904954
0.00551234
0.00180396
0.320903
0.97215
1.64955
2.36271
3.10726
3.85739
4.56147
5.14925
5.5572
5.75893
5.76869
5.62123
5.35814
5.01923
4.63545
4.22957
3.81859
3.4149
3.02945
2.67238
2.34957
2.06155
1.80604
1.5801
1.38063
1.20495
1.05096
0.91672
0.800459
0.700355
0.614099
0.539058
0.473022
0.41451
0.362515
0.31633
0.275419
0.239255
0.207331
0.179198
0.154456
0.132808
0.11405
0.097957
0.0842353
0.0725757
0.0626974
0.0543536
0.0473398
0.0414915
0.0366684
0.0327467
0.0296051
0.027103
0.0250786
0.0233662
0.0218
0.0202035
0.018379
0.0161073
0.0132791
0.0099346
0.0060576
0.00198641
0.333166
1.01225
1.72741
2.49464
3.31414
4.15904
4.96629
5.64243
6.09982
6.30627
6.28783
6.09219
5.77196
5.37595
4.93866
4.48377
4.02872
3.58492
3.16369
2.77732
2.4324
2.12789
1.85968
1.62377
1.41619
1.23376
1.07426
0.935656
0.81613
0.713931
0.626451
0.550445
0.483334
0.423645
0.370426
0.32305
0.281072
0.243971
0.211214
0.182337
0.156908
0.134638
0.115383
0.0989433
0.0849896
0.0731707
0.0631833
0.0547621
0.0476947
0.0418198
0.0370003
0.0331191
0.0300635
0.0276883
0.0258151
0.0242677
0.0228737
0.0214392
0.0197322
0.017474
0.0145153
0.0108892
0.00664324
0.00218472
0.341886
1.04209
1.78961
2.60853
3.50604
4.45654
5.38455
6.16594
6.67824
6.88305
6.82639
6.57223
6.1858
5.72704
5.23296
4.72708
4.22718
3.74234
3.28397
2.868
2.50218
2.18285
1.90343
1.65893
1.44434
1.25596
1.09168
0.949311
0.827073
0.723482
0.635596
0.559272
0.491479
0.430883
0.376639
0.328226
0.28535
0.247475
0.214028
0.184541
0.158521
0.135688
0.116004
0.0993085
0.0852148
0.0733143
0.0632843
0.0548385
0.0477572
0.041889
0.0371001
0.0332839
0.030344
0.0281304
0.0264413
0.0250906
0.0239078
0.022683
0.0211469
0.0189446
0.0158643
0.0119239
0.0072726
0.0024001
0.346687
1.06041
1.83371
2.7005
3.67817
4.74601
5.81636
6.7249
7.29803
7.49135
7.3843
7.06008
6.59738
6.07062
5.51712
4.95864
4.41387
3.88731
3.38996
2.94401
2.55897
2.22689
1.93782
1.68618
1.46568
1.27204
1.10366
0.958074
0.833557
0.729267
0.641882
0.565907
0.497746
0.436463
0.381349
0.332005
0.288382
0.249889
0.21588
0.185914
0.159388
0.136024
0.115962
0.0991043
0.084964
0.0730543
0.0630444
0.0546219
0.0475596
0.0417261
0.0369892
0.0332555
0.0304581
0.028441
0.0269655
0.0258379
0.0249033
0.0239375
0.0226332
0.020541
0.017349
0.0130485
0.00794566
0.00263179
0.347276
1.06616
1.85743
2.76658
3.82502
5.02245
6.2614
7.32591
7.96602
8.13262
7.96095
7.55418
7.00382
6.40465
5.79004
5.17754
4.58896
4.02032
3.48129
3.00477
2.60291
2.26059
1.96341
1.70615
1.48084
1.28249
1.11067
0.96234
0.835806
0.731502
0.645677
0.570744
0.502412
0.440609
0.384738
0.33451
0.290289
0.251329
0.216869
0.186562
0.159605
0.135703
0.115298
0.0983801
0.0842904
0.0724366
0.0625067
0.0541508
0.047132
0.0413577
0.0366885
0.0330467
0.0304155
0.0286321
0.0273964
0.0265106
0.025859
0.0252022
0.0241991
0.0222887
0.0189954
0.0142707
0.00865722
0.00287588
0.343468
1.05857
1.85884
2.80285
3.94039
5.2794
6.71866
7.97752
8.69059
8.80721
8.55509
8.05284
7.40151
6.72706
6.05081
5.38271
4.75294
4.14231
3.55745
3.0495
2.63427
2.28476
1.98074
1.71955
1.49054
1.28776
1.11319
0.962528
0.83398
0.730339
0.647373
0.574209
0.505725
0.443528
0.386985
0.335842
0.291182
0.251911
0.217078
0.186591
0.159271
0.134774
0.114041
0.0971841
0.0832487
0.0715041
0.0617131
0.0534633
0.0465023
0.0408093
0.0362186
0.0326673
0.0302243
0.0287167
0.0277435
0.0271076
0.0267713
0.0264728
0.0258489
0.0242178
0.0208346
0.0155944
0.00939485
0.00312435
0.335205
1.03725
1.83647
2.80559
4.01745
5.50866
7.18586
8.69104
9.48228
9.51345
9.1648
8.55453
7.78581
7.03585
6.299
5.57273
4.90675
4.25484
3.61769
3.07706
2.65349
2.30043
1.99032
1.72712
1.49553
1.28818
1.11169
0.959099
0.828156
0.725847
0.647408
0.57678
0.507883
0.445412
0.388265
0.336064
0.291164
0.25175
0.216575
0.186107
0.158497
0.133272
0.112208
0.0955643
0.0818965
0.0702949
0.0607041
0.0525969
0.0456941
0.0401061
0.0356005
0.0321243
0.0298892
0.0287104
0.028018
0.0276246
0.0276353
0.0277409
0.0275808
0.0263647
0.0229039
0.0170178
0.0101371
0.00336447
0.322563
1.00216
1.7894
2.77157
4.04895
5.69987
7.65877
9.48146
10.3545
10.2464
9.78758
9.05844
8.15064
7.32933
6.53492
5.74547
5.05186
4.36035
3.66081
3.08582
2.66131
2.30901
1.99246
1.72964
1.49671
1.28398
1.1067
0.952588
0.818295
0.717979
0.646293
0.579008
0.509003
0.446432
0.388763
0.335192
0.290335
0.25097
0.215395
0.185225
0.157407
0.131215
0.109794
0.0935719
0.0802966
0.0688398
0.0595192
0.0515902
0.0447258
0.0392732
0.0348567
0.0314199
0.0294115
0.0286319
0.0282335
0.0280536
0.0284454
0.028994
0.0293837
0.0287748
0.02525
0.01853
0.0108525
0.00357896
0.305752
0.95373
1.71747
2.69828
4.02747
5.84024
8.12994
10.3688
11.3243
10.996
10.4207
9.5652
8.48774
7.60644
6.75999
5.89756
5.19048
4.46248
3.68493
3.0735
2.65888
2.31234
1.98715
1.72798
1.4951
1.2751
1.09877
0.943662
0.804201
0.706531
0.644648
0.581542
0.509072
0.446752
0.388693
0.333171
0.288799
0.249716
0.213531
0.184068
0.15615
0.128597
0.106775
0.091265
0.0785203
0.0671578
0.0581975
0.0504839
0.0436077
0.0383364
0.0340127
0.0305514
0.0287871
0.0285052
0.0284078
0.0283801
0.0291969
0.0302159
0.0312318
0.0315057
0.0279325
0.0201076
0.0114989
0.00374726
0.285112
0.892783
1.62127
2.58418
3.94583
5.91426
8.58705
11.3797
12.4142
11.7443
11.0617
10.078
8.78545
7.86719
6.97739
6.0235
5.32582
4.56655
3.68708
3.03692
2.64804
2.3129
1.9738
1.72313
1.49199
1.26114
1.08855
0.933184
0.785471
0.691089
0.643257
0.585175
0.50788
0.446541
0.388326
0.329845
0.286678
0.248162
0.21091
0.182778
0.15491
0.125375
0.103096
0.0887148
0.0766514
0.06525
0.0567796
0.0493232
0.0423384
0.0373233
0.0330989
0.0295085
0.0280047
0.0283618
0.0285641
0.028581
0.0298893
0.0313881
0.0330772
0.0346311
0.031029
0.0217089
0.0120245
0.00384768
0.261089
0.820536
1.50218
2.42902
3.79764
5.90369
9.01042
12.5498
13.6538
12.4614
11.7097
10.6043
9.02702
8.11342
7.19284
6.11444
5.46249
4.68007
3.66272
2.97183
2.63152
2.31396
1.95088
1.71628
1.48903
1.24109
1.07683
0.922314
0.76142
0.67097
0.643137
0.590894
0.504918
0.445997
0.388023
0.324908
0.284127
0.246543
0.20736
0.181523
0.153926
0.121461
0.0986704
0.0860131
0.0747919
0.0630907
0.0553096
0.0481617
0.0408994
0.0362655
0.0321539
0.028272
0.0270434
0.0282438
0.0287337
0.0286189
0.0305292
0.0324921
0.0348401
0.0382468
0.0346424
0.0232677
0.0123695
0.00386023
0.234214
0.738531
1.36238
2.23397
3.57799
5.78785
9.36963
13.9264
15.082
13.1007
12.3669
11.1577
9.18799
8.34976
7.4157
6.15645
5.60712
4.81358
3.605
2.87259
2.6134
2.31985
1.91543
1.70901
1.48844
1.21311
1.06462
0.912625
0.730998
0.645137
0.645628
0.599952
0.499246
0.445395
0.388294
0.31784
0.281363
0.245174
0.202563
0.180518
0.153507
0.116702
0.0933725
0.0832821
0.0730681
0.060615
0.0538399
0.0470657
0.0392475
0.035201
0.0312279
0.0268108
0.0258692
0.0282072
0.0289588
0.0284363
0.0311358
0.0335143
0.0363947
0.0424781
0.0389095
0.0246837
0.0124684
0.00376956
0.205074
0.648558
1.20476
2.00181
3.28426
5.5445
9.61896
15.5717
16.7513
13.5916
13.0415
11.7605
9.23267
8.5852
7.66037
6.12809
5.76915
4.98148
3.50383
2.73202
2.59945
2.33625
1.86245
1.70348
1.4932
1.17413
1.05333
0.906253
0.692669
0.612107
0.652497
0.613954
0.489312
0.445152
0.389858
0.307809
0.278704
0.244497
0.195996
0.180046
0.15406
0.110853
0.087031
0.0806863
0.0716395
0.0577018
0.052437
0.0461209
0.0373052
0.0341778
0.0303871
0.025079
0.0244308
0.0283267
0.0292963
0.0279455
0.0317476
0.0344526
0.0375504
0.0474894
0.0440119
0.0258099
0.0122527
0.00356722
0.174278
0.552557
1.03275
1.7369
2.91695
5.15146
9.6914
17.5673
18.7313
13.8305
13.7513
12.4474
9.10927
8.835
7.94818
5.99734
5.96213
5.20315
3.34475
2.54114
2.59773
2.37061
1.784
1.70276
1.50741
1.11935
1.04488
0.906064
0.644275
0.569849
0.666065
0.634976
0.472714
0.44592
0.393732
0.293546
0.276625
0.245122
0.186846
0.18049
0.156117
0.103551
0.0794257
0.0784465
0.0707087
0.0541519
0.0511911
0.0454404
0.0349467
0.0332597
0.0297186
0.0230123
0.022655
0.0287009
0.0298238
0.027016
0.0324304
0.0353264
0.0380282
0.0534967
0.0501882
0.0264363
0.0116548
0.00325256
0.142433
0.452518
0.850172
1.4451
2.48048
4.58926
9.49104
20.0184
21.1152
13.6692
14.5293
13.2688
8.74367
9.12355
8.30954
5.71753
6.20531
5.50409
3.10741
2.28912
2.61907
2.43257
1.66816
1.71135
1.53661
1.04164
1.04203
0.91585
0.582865
0.51566
0.689354
0.665703
0.445905
0.448724
0.401331
0.273184
0.275827
0.247892
0.173905
0.182379
0.16037
0.094272
0.0702851
0.0768543
0.0705343
0.0496604
0.0502275
0.045175
0.0319807
0.0325334
0.0293367
0.0205238
0.0204404
0.0294578
0.0306457
0.0254583
0.0332878
0.0361905
0.03743
0.0607829
0.0577489
0.026268
0.0106124
0.00283194
0.110112
0.350381
0.661011
1.13352
1.98376
3.8452
8.88359
23.0597
24.0266
12.9011
15.4303
14.2957
8.03152
9.4879
8.78666
5.22233
6.52588
5.91732
2.76381
1.96328
2.67771
2.5346
1.49771
1.73572
1.58825
0.930726
1.0487
0.94052
0.504504
0.446046
0.726234
0.709605
0.403821
0.455134
0.414578
0.244051
0.277336
0.253954
0.155439
0.186446
0.167702
0.0822887
0.0592883
0.0762876
0.0714461
0.043782
0.0497239
0.0455248
0.0281293
0.0321176
0.0293879
0.0174998
0.0176509
0.0307616
0.0319032
0.0230024
0.0344726
0.0371536
0.0352009
0.069718
0.0670921
0.0248978
0.00907617
0.00231672
0.0778374
0.247955
0.4692
0.810021
1.4404
2.91892
7.68498
26.8612
27.6284
11.2434
16.5396
15.6247
6.82862
9.98233
9.43659
4.41976
6.96183
6.48463
2.27619
1.54931
2.79181
2.69263
1.24855
1.78513
1.67214
0.772253
1.07039
0.986296
0.404056
0.356593
0.781589
0.771155
0.339446
0.46749
0.436046
0.20242
0.28262
0.264839
0.129029
0.193707
0.179227
0.0666125
0.0460705
0.077225
0.0738636
0.0358902
0.04993
0.0467532
0.0230015
0.0321755
0.0300572
0.0137948
0.014108
0.0328187
0.0337851
0.0192736
0.0362003
0.0384018
0.0305835
0.0807822
0.0787201
0.021772
0.00702347
0.0017209
0.0460657
0.146843
0.278402
0.482776
0.868384
1.82994
5.64795
31.6347
32.1332
8.31789
17.9847
17.383
4.93961
10.684
10.3346
3.18502
7.56549
7.25791
1.59469
1.03173
2.98393
2.92696
0.887862
1.87258
1.80104
0.546658
1.11479
1.06089
0.274947
0.241852
0.861463
0.856078
0.243288
0.48918
0.469086
0.143211
0.29374
0.282552
0.0913813
0.205551
0.196321
0.0459314
0.0302366
0.0802581
0.0783176
0.0251289
0.0511936
0.0492016
0.0160631
0.0329304
0.0315727
0.00922759
0.00958332
0.0358839
0.0365422
0.0137616
0.0387633
0.040228
0.0225648
0.0945947
0.0932583
0.0161504
0.00448019
0.00106055
0.0151763
0.048396
0.091839
0.159599
0.288825
0.62711
2.44676
37.6405
37.8158
3.6275
19.9472
19.734
2.10502
11.6996
11.578
1.35246
8.4079
8.30025
0.654669
0.394598
3.28128
3.26313
0.372005
2.01595
1.99122
0.227901
1.19244
1.17363
0.108927
0.0952332
0.973198
0.971646
0.102793
0.524972
0.517981
0.059661
0.313525
0.309674
0.0381197
0.223861
0.220653
0.0185407
0.0113808
0.0860989
0.0854766
0.0103583
0.0539898
0.0533055
0.00660135
0.0346838
0.0342096
0.00357711
0.00379009
0.0402658
0.0405047
0.00578737
0.0425449
0.0430669
0.0098141
0.111946
0.111473
0.00706121
0.00155679
0.000357377
)
;

boundaryField
{
    left
    {
        type            calculated;
        value           uniform 0;
    }
    right
    {
        type            calculated;
        value           uniform 0;
    }
    interface
    {
        type            calculated;
        value           nonuniform List<scalar> 
64
(
0.0151763
0.048396
0.091839
0.159599
0.288825
0.62711
2.44676
37.6405
37.8158
3.6275
19.9472
19.734
2.10502
11.6996
11.578
1.35246
8.4079
8.30025
0.654669
0.394598
3.28128
3.26313
0.372005
2.01595
1.99122
0.227901
1.19244
1.17363
0.108927
0.0952332
0.973198
0.971646
0.102793
0.524972
0.517981
0.059661
0.313525
0.309674
0.0381197
0.223861
0.220653
0.0185407
0.0113808
0.0860989
0.0854766
0.0103583
0.0539898
0.0533055
0.00660135
0.0346838
0.0342096
0.00357711
0.00379009
0.0402658
0.0405047
0.00578737
0.0425449
0.0430669
0.0098141
0.111946
0.111473
0.00706121
0.00155679
0.000357377
)
;
    }
    bottom
    {
        type            calculated;
        value           nonuniform List<scalar> 
64
(
0.014124
0.0421601
0.06956
0.0958565
0.120534
0.143054
0.162873
0.179498
0.192538
0.201758
0.207099
0.208684
0.206803
0.201873
0.194392
0.184897
0.173928
0.161988
0.149531
0.136944
0.124544
0.112575
0.101214
0.0905807
0.0807445
0.071735
0.0635511
0.0561688
0.0495483
0.0436389
0.0383841
0.0337244
0.0296008
0.0259567
0.0227393
0.0199007
0.0173976
0.015192
0.0132501
0.0115425
0.0100432
0.00872928
0.00758041
0.0065785
0.00570725
0.0049519
0.00429903
0.00373641
0.00325282
0.00283796
0.00248235
0.00217717
0.00191422
0.00168582
0.00148483
0.00130463
0.00113925
0.000983499
0.000833043
0.000684534
0.000535591
0.00038479
0.000231797
7.73944e-05
)
;
    }
    defaultFaces
    {
        type            empty;
    }
}


// ************************************************************************* //
