/*--------------------------------*- C++ -*----------------------------------*\
| =========                 |                                                 |
| \\      /  F ield         | OpenFOAM: The Open Source CFD Toolbox           |
|  \\    /   O peration     | Version:  5.x                                   |
|   \\  /    A nd           | Web:      www.OpenFOAM.org                      |
|    \\/     M anipulation  |                                                 |
\*---------------------------------------------------------------------------*/
FoamFile
{
    version     2.0;
    format      ascii;
    class       volScalarField;
    location    "1.4";
    object      gradTy;
}
// * * * * * * * * * * * * * * * * * * * * * * * * * * * * * * * * * * * * * //

dimensions      [0 -1 0 1 0 0 0];

internalField   nonuniform List<scalar> 
2048
(
-23.6029
-23.5412
-23.4189
-23.2376
-23.0004
-22.7113
-22.3757
-21.9999
-21.5916
-21.1589
-20.7104
-20.2546
-19.7994
-19.3522
-18.919
-18.5047
-18.1133
-17.7473
-17.4082
-17.0967
-16.8127
-16.5553
-16.3235
-16.1157
-15.9302
-15.7653
-15.619
-15.4895
-15.3753
-15.2747
-15.1861
-15.1082
-15.0399
-14.9799
-14.9274
-14.8813
-14.8411
-14.8059
-14.7753
-14.7485
-14.7252
-14.705
-14.6874
-14.6722
-14.6589
-14.6474
-14.6375
-14.6288
-14.6213
-14.6147
-14.609
-14.604
-14.5996
-14.5957
-14.5923
-14.5892
-14.5866
-14.5843
-14.5823
-14.5807
-14.5793
-14.5783
-14.5777
-14.5773
-23.6521
-23.5897
-23.4659
-23.2822
-23.0417
-22.7483
-22.4073
-22.0255
-21.6104
-21.1707
-20.7153
-20.253
-19.792
-19.3397
-18.9024
-18.4851
-18.0915
-17.7241
-17.3845
-17.073
-16.7895
-16.5331
-16.3025
-16.0961
-15.912
-15.7484
-15.6036
-15.4755
-15.3626
-15.2631
-15.1756
-15.0987
-15.0313
-14.9721
-14.9202
-14.8748
-14.8351
-14.8004
-14.7702
-14.7438
-14.7209
-14.7009
-14.6836
-14.6686
-14.6556
-14.6443
-14.6345
-14.626
-14.6186
-14.6121
-14.6065
-14.6015
-14.5972
-14.5933
-14.59
-14.587
-14.5844
-14.5821
-14.5801
-14.5784
-14.5771
-14.5761
-14.5754
-14.5751
-23.7457
-23.682
-23.5554
-23.3673
-23.1205
-22.8189
-22.4678
-22.0742
-21.6463
-21.1932
-20.7244
-20.2495
-19.7773
-19.3154
-18.8703
-18.4471
-18.0495
-17.6797
-17.3391
-17.0279
-16.7455
-16.491
-16.2626
-16.0588
-15.8774
-15.7167
-15.5745
-15.449
-15.3385
-15.2413
-15.1559
-15.0808
-15.015
-14.9573
-14.9067
-14.8625
-14.8238
-14.79
-14.7606
-14.7349
-14.7126
-14.6932
-14.6764
-14.6618
-14.6492
-14.6383
-14.6288
-14.6206
-14.6134
-14.6072
-14.6017
-14.5969
-14.5927
-14.5889
-14.5856
-14.5827
-14.5801
-14.5779
-14.5759
-14.5742
-14.5729
-14.5719
-14.5712
-14.5709
-23.8788
-23.8133
-23.6829
-23.4887
-23.2332
-22.9199
-22.5544
-22.1439
-21.6973
-21.2246
-20.7365
-20.2435
-19.7551
-19.2795
-18.8235
-18.3921
-17.9889
-17.6159
-17.2742
-16.9635
-16.6829
-16.4311
-16.2062
-16.0061
-15.8287
-15.6719
-15.5336
-15.4119
-15.3048
-15.2108
-15.1282
-15.0558
-14.9922
-14.9366
-14.8878
-14.8452
-14.808
-14.7754
-14.7471
-14.7225
-14.701
-14.6825
-14.6663
-14.6524
-14.6403
-14.6299
-14.6208
-14.613
-14.6062
-14.6002
-14.595
-14.5904
-14.5864
-14.5828
-14.5796
-14.5767
-14.5742
-14.5719
-14.57
-14.5683
-14.567
-14.5659
-14.5652
-14.5649
-24.047
-23.9795
-23.8446
-23.6432
-23.3769
-23.0491
-22.6651
-22.2327
-21.7618
-21.2637
-20.7506
-20.2341
-19.7249
-19.232
-18.7622
-18.3207
-17.9108
-17.5342
-17.1913
-16.8816
-16.6037
-16.3557
-16.1352
-15.9401
-15.7678
-15.6161
-15.4828
-15.3656
-15.2629
-15.1729
-15.0939
-15.0247
-14.9641
-14.911
-14.8645
-14.8238
-14.7883
-14.7574
-14.7304
-14.707
-14.6867
-14.6691
-14.6538
-14.6407
-14.6293
-14.6194
-14.6109
-14.6036
-14.5971
-14.5915
-14.5866
-14.5823
-14.5785
-14.5751
-14.572
-14.5692
-14.5668
-14.5645
-14.5626
-14.5609
-14.5596
-14.5585
-14.5578
-14.5574
-24.2466
-24.1769
-24.0373
-23.8278
-23.5494
-23.2045
-22.7984
-22.3394
-21.8386
-21.3092
-20.7652
-20.2202
-19.686
-19.1723
-18.6864
-18.2333
-17.8159
-17.4355
-17.0919
-16.7839
-16.5096
-16.2664
-16.0516
-15.8626
-15.6965
-15.5509
-15.4234
-15.3118
-15.2143
-15.1289
-15.0542
-14.9887
-14.9314
-14.8813
-14.8374
-14.799
-14.7656
-14.7364
-14.711
-14.689
-14.67
-14.6535
-14.6393
-14.627
-14.6164
-14.6073
-14.5994
-14.5926
-14.5866
-14.5815
-14.5769
-14.5729
-14.5693
-14.5661
-14.5632
-14.5605
-14.5581
-14.5559
-14.554
-14.5523
-14.5509
-14.5498
-14.549
-14.5487
-24.4739
-24.4022
-24.2581
-24.0405
-23.749
-23.385
-22.9534
-22.463
-21.9266
-21.3598
-20.7792
-20.2006
-19.6373
-19.0999
-18.5959
-18.1301
-17.7048
-17.3208
-16.977
-16.6717
-16.402
-16.1649
-15.957
-15.7751
-15.6163
-15.4778
-15.3571
-15.2518
-15.1601
-15.08
-15.01
-14.9488
-14.8952
-14.8483
-14.8073
-14.7715
-14.7402
-14.7131
-14.6895
-14.669
-14.6514
-14.6361
-14.623
-14.6118
-14.6021
-14.5937
-14.5866
-14.5803
-14.5749
-14.5702
-14.5661
-14.5624
-14.559
-14.556
-14.5533
-14.5508
-14.5484
-14.5463
-14.5443
-14.5426
-14.5411
-14.54
-14.5392
-14.5388
-24.7256
-24.6524
-24.5045
-24.2793
-23.9745
-23.5899
-23.1296
-22.603
-22.0249
-21.4143
-20.7911
-20.1738
-19.5775
-19.0138
-18.4902
-18.0109
-17.5779
-17.1907
-16.8478
-16.5463
-16.2826
-16.0527
-15.8529
-15.6794
-15.5288
-15.3983
-15.2851
-15.1869
-15.1015
-15.0273
-14.9625
-14.9058
-14.8563
-14.8129
-14.7749
-14.7418
-14.7129
-14.6879
-14.6662
-14.6474
-14.6312
-14.6174
-14.6055
-14.5953
-14.5865
-14.579
-14.5726
-14.567
-14.5622
-14.558
-14.5543
-14.5509
-14.5479
-14.5451
-14.5426
-14.5401
-14.5379
-14.5357
-14.5338
-14.532
-14.5305
-14.5293
-14.5284
-14.528
-24.9983
-24.9245
-24.7741
-24.5425
-24.225
-23.819
-23.327
-22.7591
-22.1329
-21.4716
-20.7995
-20.1383
-19.5055
-18.9132
-18.3688
-17.876
-17.4354
-17.046
-16.7051
-16.4088
-16.1524
-15.9313
-15.7408
-15.5767
-15.4354
-15.3136
-15.2086
-15.118
-15.0396
-14.9716
-14.9124
-14.8606
-14.8152
-14.7755
-14.7408
-14.7104
-14.6841
-14.6612
-14.6415
-14.6245
-14.6099
-14.5974
-14.5868
-14.5778
-14.5701
-14.5635
-14.5578
-14.5529
-14.5487
-14.545
-14.5417
-14.5388
-14.5361
-14.5336
-14.5312
-14.5289
-14.5266
-14.5245
-14.5225
-14.5207
-14.5191
-14.5178
-14.5169
-14.5165
-25.2888
-25.2153
-25.0644
-24.8287
-24.5
-24.0724
-23.5461
-22.9315
-22.25
-21.5304
-20.8026
-20.0925
-19.4198
-18.7971
-18.2314
-17.7251
-17.2779
-16.8874
-16.5499
-16.2603
-16.013
-15.8021
-15.6221
-15.4685
-15.3372
-15.2249
-15.1288
-15.0463
-14.9754
-14.914
-14.8605
-14.8138
-14.7727
-14.7368
-14.7053
-14.6779
-14.6541
-14.6336
-14.6158
-14.6007
-14.5877
-14.5767
-14.5674
-14.5595
-14.5529
-14.5472
-14.5424
-14.5382
-14.5346
-14.5314
-14.5286
-14.5261
-14.5237
-14.5214
-14.5192
-14.5171
-14.5149
-14.5128
-14.5107
-14.5088
-14.5071
-14.5057
-14.5047
-14.5042
-25.5935
-25.522
-25.3731
-25.1364
-24.7993
-24.3508
-23.7878
-23.1208
-22.3758
-21.5893
-20.7986
-20.0345
-19.3188
-18.6646
-18.0774
-17.5584
-17.1057
-16.7155
-16.383
-16.102
-15.8655
-15.6663
-15.4981
-15.356
-15.2355
-15.1334
-15.0466
-14.9727
-14.9095
-14.855
-14.8076
-14.766
-14.7294
-14.6973
-14.6691
-14.6446
-14.6234
-14.6052
-14.5895
-14.5762
-14.5648
-14.5553
-14.5474
-14.5407
-14.5352
-14.5305
-14.5265
-14.523
-14.5201
-14.5175
-14.5151
-14.513
-14.5109
-14.5089
-14.5069
-14.5049
-14.5028
-14.5006
-14.4985
-14.4964
-14.4946
-14.4931
-14.492
-14.4915
-25.909
-25.8412
-25.6977
-25.4645
-25.1229
-24.6555
-24.0539
-23.3278
-22.5097
-21.6468
-20.7855
-19.9622
-19.2012
-18.5147
-17.9067
-17.3761
-16.9193
-16.531
-16.2054
-15.935
-15.7111
-15.5252
-15.3701
-15.2403
-15.1314
-15.0399
-14.9629
-14.898
-14.8428
-14.7955
-14.7543
-14.7179
-14.6857
-14.6573
-14.6325
-14.6109
-14.5923
-14.5763
-14.5627
-14.5512
-14.5416
-14.5336
-14.527
-14.5216
-14.5172
-14.5134
-14.5103
-14.5076
-14.5052
-14.5032
-14.5013
-14.4996
-14.4979
-14.4962
-14.4944
-14.4924
-14.4904
-14.4882
-14.486
-14.4837
-14.4817
-14.4801
-14.4789
-14.4783
-26.2316
-26.1697
-26.0359
-25.8116
-25.4711
-24.9881
-24.3464
-23.5539
-22.6513
-21.701
-20.761
-19.8737
-19.0653
-18.3468
-17.719
-17.1786
-16.7194
-16.3347
-16.018
-15.7604
-15.5512
-15.38
-15.2392
-15.1226
-15.0257
-14.9453
-14.8784
-14.8227
-14.776
-14.7361
-14.7011
-14.6699
-14.642
-14.6173
-14.5957
-14.577
-14.561
-14.5473
-14.5358
-14.5261
-14.5181
-14.5117
-14.5065
-14.5023
-14.499
-14.4962
-14.4939
-14.4919
-14.4903
-14.4888
-14.4874
-14.4861
-14.4847
-14.4833
-14.4817
-14.4799
-14.4779
-14.4756
-14.4733
-14.4709
-14.4686
-14.4667
-14.4654
-14.4648
-26.5576
-26.504
-26.3847
-26.1761
-25.8441
-25.3507
-24.6684
-23.801
-22.8
-21.7496
-20.7225
-19.7664
-18.9096
-18.1602
-17.5145
-16.9663
-16.5066
-16.1273
-15.8215
-15.5792
-15.3868
-15.2322
-15.1066
-15.0039
-14.9195
-14.8504
-14.7939
-14.7477
-14.7095
-14.6772
-14.6485
-14.6224
-14.5987
-14.5776
-14.5591
-14.5432
-14.5297
-14.5183
-14.5088
-14.501
-14.4946
-14.4897
-14.4859
-14.483
-14.4808
-14.479
-14.4775
-14.4763
-14.4752
-14.4743
-14.4734
-14.4725
-14.4715
-14.4704
-14.4689
-14.4673
-14.4653
-14.463
-14.4605
-14.4578
-14.4553
-14.4532
-14.4517
-14.451
-26.8831
-26.8406
-26.7414
-26.5565
-26.2422
-25.7461
-25.0239
-24.0716
-22.9548
-21.79
-20.6672
-19.638
-18.7327
-17.9547
-17.2934
-16.7399
-16.2821
-15.9095
-15.6167
-15.3925
-15.2195
-15.0827
-14.9733
-14.885
-14.8134
-14.7558
-14.7099
-14.6732
-14.6439
-14.6193
-14.597
-14.5758
-14.556
-14.5383
-14.5228
-14.5097
-14.4987
-14.4895
-14.482
-14.476
-14.4712
-14.4677
-14.4654
-14.4638
-14.4627
-14.4618
-14.4612
-14.4607
-14.4602
-14.4598
-14.4594
-14.4589
-14.4583
-14.4575
-14.4562
-14.4547
-14.4527
-14.4504
-14.4477
-14.4448
-14.4419
-14.4395
-14.4379
-14.437
-27.2045
-27.1759
-27.1026
-26.9507
-26.6659
-26.1774
-25.4179
-24.3689
-23.114
-21.8185
-20.5921
-19.4857
-18.5332
-17.7303
-17.0562
-16.5005
-16.0468
-15.6819
-15.4042
-15.2013
-15.0504
-14.9328
-14.8404
-14.767
-14.708
-14.6621
-14.6269
-14.5998
-14.5795
-14.563
-14.547
-14.5303
-14.5142
-14.4997
-14.487
-14.4766
-14.4681
-14.4611
-14.4555
-14.4512
-14.448
-14.446
-14.4451
-14.4448
-14.4447
-14.4448
-14.445
-14.4452
-14.4453
-14.4455
-14.4455
-14.4455
-14.4452
-14.4447
-14.4437
-14.4422
-14.4403
-14.4379
-14.435
-14.4317
-14.4285
-14.4257
-14.4239
-14.4229
-27.518
-27.5062
-27.4651
-27.3564
-27.1149
-26.6482
-25.8569
-24.6974
-23.2749
-21.8309
-20.4942
-19.3066
-18.3099
-17.4875
-16.8034
-16.2491
-15.8021
-15.445
-15.1845
-15.0069
-14.8811
-14.7835
-14.7087
-14.6506
-14.604
-14.5697
-14.5453
-14.5277
-14.5165
-14.5085
-14.4989
-14.4862
-14.4734
-14.4619
-14.4519
-14.444
-14.438
-14.4331
-14.4294
-14.4268
-14.425
-14.4244
-14.425
-14.426
-14.4271
-14.4281
-14.429
-14.4298
-14.4306
-14.4312
-14.4318
-14.4322
-14.4323
-14.432
-14.4312
-14.4299
-14.428
-14.4256
-14.4224
-14.4188
-14.415
-14.4118
-14.4098
-14.4087
-27.8201
-27.8279
-27.8251
-27.7706
-27.5886
-27.1623
-26.3491
-25.0631
-23.4331
-21.8214
-20.371
-19.0975
-18.0618
-17.2277
-16.5357
-15.9871
-15.5501
-15.1991
-14.9576
-14.8103
-14.7131
-14.6358
-14.579
-14.5364
-14.5017
-14.4789
-14.4654
-14.457
-14.4553
-14.4562
-14.4529
-14.4436
-14.4337
-14.4251
-14.4173
-14.412
-14.4085
-14.4056
-14.4038
-14.4028
-14.4023
-14.4031
-14.4052
-14.4076
-14.4097
-14.4116
-14.4133
-14.4147
-14.416
-14.4172
-14.4182
-14.419
-14.4196
-14.4196
-14.4189
-14.4178
-14.416
-14.4134
-14.4101
-14.4059
-14.4015
-14.3978
-14.3956
-14.3944
-28.1077
-28.1373
-28.1788
-28.1896
-28.0858
-27.7237
-26.9047
-25.4747
-23.5811
-21.7833
-20.221
-18.8545
-17.7879
-16.9533
-16.2534
-15.7161
-15.2931
-14.9438
-14.7232
-14.6129
-14.5484
-14.4905
-14.4519
-14.4255
-14.4012
-14.39
-14.3877
-14.3877
-14.3958
-14.4066
-14.4097
-14.4024
-14.3951
-14.3892
-14.3834
-14.3807
-14.3797
-14.3786
-14.3787
-14.3794
-14.3799
-14.3821
-14.3858
-14.3896
-14.3927
-14.3955
-14.3979
-14.3999
-14.4017
-14.4034
-14.4047
-14.406
-14.407
-14.4073
-14.4068
-14.4058
-14.4041
-14.4015
-14.3979
-14.3932
-14.388
-14.3837
-14.3813
-14.3801
-28.3779
-28.4313
-28.5222
-28.6094
-28.6038
-28.3358
-27.5366
-25.9444
-23.7071
-21.708
-20.0451
-18.5726
-17.4874
-16.6683
-15.9564
-15.4378
-15.0348
-14.678
-14.4806
-14.4161
-14.3893
-14.348
-14.328
-14.3186
-14.3026
-14.3031
-14.3125
-14.3198
-14.338
-14.3599
-14.3696
-14.3627
-14.3574
-14.3545
-14.3501
-14.35
-14.3518
-14.3522
-14.3542
-14.3565
-14.3577
-14.3613
-14.3668
-14.3721
-14.376
-14.3796
-14.3828
-14.3852
-14.3876
-14.3897
-14.3915
-14.3932
-14.3947
-14.3953
-14.3949
-14.394
-14.3925
-14.3898
-14.3861
-14.3808
-14.3745
-14.3696
-14.367
-14.3658
-28.6283
-28.7068
-28.8512
-29.0248
-29.139
-29.0013
-28.2601
-26.4904
-23.7921
-21.5854
-19.8479
-18.2445
-17.1596
-16.3792
-15.643
-15.1538
-14.7803
-14.3995
-14.2282
-14.2218
-14.2389
-14.2081
-14.2075
-14.217
-14.2055
-14.2183
-14.2406
-14.2528
-14.2818
-14.3168
-14.3334
-14.3242
-14.3207
-14.3211
-14.3172
-14.3199
-14.3249
-14.3263
-14.3304
-14.3344
-14.3358
-14.3407
-14.3483
-14.3552
-14.3597
-14.3641
-14.3681
-14.3708
-14.3737
-14.3764
-14.3784
-14.3806
-14.3826
-14.3835
-14.3832
-14.3825
-14.3811
-14.3784
-14.3746
-14.3687
-14.3609
-14.3553
-14.3527
-14.3516
-28.8569
-28.9613
-29.1618
-29.4304
-29.6856
-29.721
-29.0934
-27.14
-23.8061
-21.4036
-19.6402
-17.8593
-16.804
-16.0961
-15.3091
-14.8659
-14.5374
-14.1042
-13.9638
-14.0324
-14.1013
-14.0699
-14.0906
-14.1223
-14.1089
-14.1355
-14.1728
-14.1861
-14.2268
-14.2777
-14.3019
-14.2861
-14.2846
-14.2893
-14.2844
-14.2906
-14.2993
-14.3008
-14.3072
-14.3133
-14.314
-14.3202
-14.3303
-14.3389
-14.3438
-14.349
-14.3538
-14.3567
-14.3601
-14.3633
-14.3655
-14.3682
-14.3708
-14.3721
-14.3716
-14.3712
-14.3701
-14.3672
-14.3635
-14.3569
-14.3472
-14.3408
-14.3383
-14.3376
-29.0623
-29.1924
-29.4504
-29.8201
-30.2362
-30.4929
-30.0572
-27.9342
-23.7032
-21.1492
-19.4432
-17.3996
-16.4199
-15.8348
-14.9463
-14.5759
-14.3178
-13.7846
-13.6843
-13.8509
-13.9819
-13.9309
-13.9771
-14.037
-14.0113
-14.0547
-14.1106
-14.1186
-14.1727
-14.2434
-14.2765
-14.2477
-14.2491
-14.2599
-14.2513
-14.2618
-14.2755
-14.2754
-14.2847
-14.2934
-14.2921
-14.2999
-14.3129
-14.3235
-14.3282
-14.3344
-14.34
-14.3428
-14.3468
-14.3507
-14.3528
-14.3561
-14.3595
-14.3611
-14.3602
-14.3602
-14.3595
-14.3563
-14.3529
-14.3458
-14.3333
-14.3263
-14.3241
-14.3238
-29.2438
-29.3988
-29.7136
-30.1876
-30.7815
-31.3112
-31.1731
-28.9353
-23.4131
-20.8083
-19.2926
-16.8379
-16.007
-15.619
-14.5399
-14.2854
-14.1388
-13.4292
-13.3861
-13.6812
-13.8883
-13.7866
-13.8668
-13.965
-13.9098
-13.9757
-14.0564
-14.0485
-14.1188
-14.2146
-14.259
-14.2072
-14.2138
-14.2337
-14.2173
-14.2337
-14.254
-14.2499
-14.263
-14.2754
-14.2699
-14.2796
-14.2963
-14.3092
-14.3129
-14.3201
-14.327
-14.3291
-14.3338
-14.3385
-14.3403
-14.3442
-14.3485
-14.3507
-14.349
-14.3495
-14.3494
-14.3457
-14.343
-14.3356
-14.3191
-14.3116
-14.31
-14.3103
-29.4009
-29.5792
-29.9485
-30.5265
-31.3099
-32.1646
-32.4614
-30.2369
-22.8305
-20.3676
-19.2461
-16.1304
-15.5652
-15.4846
-14.0647
-13.9959
-14.0263
-13.0193
-13.0651
-13.5278
-13.8308
-13.6295
-13.7592
-13.912
-13.7998
-13.8984
-14.0136
-13.9731
-14.0644
-14.1923
-14.2522
-14.1622
-14.1785
-14.2122
-14.1811
-14.2062
-14.2357
-14.2235
-14.2422
-14.2598
-14.2469
-14.2593
-14.2807
-14.2964
-14.2976
-14.3064
-14.3148
-14.3155
-14.3213
-14.3269
-14.3279
-14.3326
-14.3381
-14.3409
-14.3378
-14.3391
-14.34
-14.3352
-14.3337
-14.3266
-14.3043
-14.2968
-14.2962
-14.2972
-29.534
-29.7335
-30.153
-30.8309
-31.8088
-33.0351
-33.9366
-31.978
-21.8004
-19.8169
-19.3917
-15.2094
-15.0958
-15.4837
-13.4808
-13.7094
-14.0176
-12.5263
-12.7179
-13.3962
-13.8241
-13.4474
-13.6539
-13.8865
-13.6743
-13.8227
-13.9874
-13.8882
-14.0088
-14.1774
-14.2599
-14.1089
-14.1428
-14.1976
-14.141
-14.1794
-14.2221
-14.1951
-14.2222
-14.2476
-14.2222
-14.2388
-14.2661
-14.2853
-14.2821
-14.2931
-14.3037
-14.3019
-14.3091
-14.3162
-14.3155
-14.3212
-14.3282
-14.3319
-14.3265
-14.329
-14.3313
-14.3247
-14.3253
-14.3193
-14.2885
-14.2817
-14.2827
-14.2845
-29.6436
-29.8615
-30.3258
-31.0957
-32.2642
-33.8968
-35.5999
-34.363
-20.0979
-19.1526
-19.859
-13.9722
-14.6025
-15.6919
-12.727
-13.4282
-14.1666
-11.9072
-12.3427
-13.2922
-13.8879
-13.2222
-13.5508
-13.9009
-13.5226
-13.7487
-13.9852
-13.7876
-13.9511
-14.1705
-14.2875
-14.0415
-14.1067
-14.1933
-14.0942
-14.1531
-14.2151
-14.163
-14.2031
-14.2402
-14.1949
-14.218
-14.2527
-14.2764
-14.266
-14.2802
-14.294
-14.2879
-14.2973
-14.3064
-14.303
-14.3101
-14.3188
-14.324
-14.3149
-14.3193
-14.3236
-14.3139
-14.3175
-14.3144
-14.2712
-14.2665
-14.2697
-14.2722
-29.7307
-29.9642
-30.4663
-31.3169
-32.6626
-34.7161
-37.4287
-37.6875
-17.4031
-18.3837
-20.8332
-12.2669
-14.0933
-16.2152
-11.7124
-13.156
-14.5488
-11.0992
-11.942
-13.2209
-14.0499
-12.927
-13.4501
-13.9727
-13.329
-13.6768
-14.0177
-13.6622
-13.8912
-14.172
-14.3428
-13.952
-14.0703
-14.2038
-14.0365
-14.1275
-14.2172
-14.1248
-14.1848
-14.2395
-14.163
-14.1971
-14.2405
-14.2705
-14.2483
-14.2677
-14.2861
-14.273
-14.2858
-14.2979
-14.2899
-14.299
-14.31
-14.3173
-14.3024
-14.3097
-14.3171
-14.3022
-14.3105
-14.3126
-14.2513
-14.251
-14.257
-14.2604
-29.7968
-30.0425
-30.5749
-31.4918
-32.9916
-35.4519
-39.3605
-42.3718
-13.2682
-17.5391
-22.571
-9.87473
-13.584
-17.2007
-10.3064
-12.8991
-15.2689
-10.0117
-11.5261
-13.1856
-14.3476
-12.5238
-13.3536
-14.1266
-13.0709
-13.6083
-14.0996
-13.4992
-13.8298
-14.1812
-14.4366
-13.8288
-14.0339
-14.2356
-13.9621
-14.1029
-14.2323
-14.0767
-14.1674
-14.2481
-14.1241
-14.176
-14.2296
-14.2683
-14.228
-14.2555
-14.2806
-14.2566
-14.2745
-14.2909
-14.2758
-14.2881
-14.3015
-14.3122
-14.2886
-14.3002
-14.3123
-14.2891
-14.3038
-14.3153
-14.2276
-14.2354
-14.2448
-14.2491
-29.8433
-30.0981
-30.6528
-31.6198
-33.2416
-36.0589
-41.272
-49.0037
-7.07749
-16.6782
-25.4204
-6.48775
-13.1022
-18.8472
-8.32623
-12.6679
-16.4684
-8.51777
-11.1177
-13.1853
-14.8323
-11.9604
-13.2648
-14.396
-12.7171
-13.5456
-14.2507
-13.2807
-13.7694
-14.1963
-14.5838
-13.6563
-13.9992
-14.2976
-13.8629
-14.0798
-14.2656
-14.014
-14.1512
-14.2698
-14.0748
-14.1555
-14.2199
-14.2713
-14.2039
-14.2438
-14.2783
-14.2378
-14.2636
-14.286
-14.2603
-14.2772
-14.2933
-14.3094
-14.2728
-14.2909
-14.3097
-14.2737
-14.2975
-14.3243
-14.1983
-14.22
-14.2333
-14.2383
-29.8721
-30.1326
-30.7019
-31.7019
-33.407
-36.4926
-42.9505
-58.3895
2.00126
-15.905
-29.8415
-1.68303
-12.6939
-21.419
-5.5217
-12.4797
-18.3359
-6.44247
-10.7587
-13.2113
-15.5729
-11.1656
-13.1904
-14.826
-12.2251
-13.4931
-14.498
-12.9824
-13.7153
-14.2134
-14.8054
-13.4134
-13.9686
-14.4019
-13.7282
-14.0596
-14.3242
-13.9303
-14.1369
-14.3099
-14.0108
-14.1369
-14.2114
-14.2815
-14.1742
-14.2329
-14.2808
-14.2159
-14.2534
-14.2843
-14.2429
-14.2669
-14.2855
-14.31
-14.2544
-14.2819
-14.3107
-14.2554
-14.2912
-14.3422
-14.1613
-14.2057
-14.2228
-14.2284
-29.8848
-30.1482
-30.7245
-31.7405
-33.4872
-36.7178
-44.0579
-71.6167
15.0736
-15.3851
-36.4301
5.10772
-12.4303
-25.2592
-1.55837
-12.361
-21.1172
-3.54902
-10.5185
-13.2418
-16.6608
-10.0448
-13.1408
-15.4748
-11.5376
-13.4575
-14.8758
-12.5709
-13.6764
-14.2246
-15.1284
-13.0719
-13.946
-14.5637
-13.5429
-14.044
-14.4172
-13.8164
-14.1249
-14.3746
-13.9257
-14.1219
-14.2035
-14.301
-14.1365
-14.223
-14.2894
-14.189
-14.2439
-14.2867
-14.2225
-14.2573
-14.2776
-14.315
-14.232
-14.2732
-14.3163
-14.2327
-14.2843
-14.3723
-14.1132
-14.1934
-14.2133
-14.2194
)
;

boundaryField
{
    left
    {
        type            calculated;
        value           nonuniform List<scalar> 
32
(
-23.6029
-23.6521
-23.7457
-23.8788
-24.047
-24.2466
-24.4739
-24.7256
-24.9983
-25.2888
-25.5935
-25.909
-26.2316
-26.5576
-26.8831
-27.2045
-27.518
-27.8201
-28.1077
-28.3779
-28.6283
-28.8569
-29.0623
-29.2438
-29.4009
-29.534
-29.6436
-29.7307
-29.7968
-29.8433
-29.8721
-29.8848
)
;
    }
    right
    {
        type            calculated;
        value           nonuniform List<scalar> 
32
(
-14.5773
-14.5751
-14.5709
-14.5649
-14.5574
-14.5487
-14.5388
-14.528
-14.5165
-14.5042
-14.4915
-14.4783
-14.4648
-14.451
-14.437
-14.4229
-14.4087
-14.3944
-14.3801
-14.3658
-14.3516
-14.3376
-14.3238
-14.3103
-14.2972
-14.2845
-14.2722
-14.2604
-14.2491
-14.2383
-14.2284
-14.2194
)
;
    }
    interface
    {
        type            calculated;
        value           nonuniform List<scalar> 
64
(
-29.8874
-30.1515
-30.7294
-31.7494
-33.5063
-36.7747
-44.4175
-79.3462
22.7655
-15.2136
-40.3498
9.08074
-12.3455
-27.5448
0.760682
-12.3231
-22.771
-1.86382
-10.4388
-13.2545
-17.3045
-9.38945
-13.1238
-15.862
-11.1368
-13.4448
-15.1021
-12.3321
-13.6622
-14.2273
-15.3191
-12.8725
-13.9372
-14.661
-13.4354
-14.0375
-14.4734
-13.7506
-14.1196
-14.4139
-13.8769
-14.1154
-14.1995
-14.3134
-14.1152
-14.2183
-14.2954
-14.1741
-14.2393
-14.289
-14.2113
-14.2527
-14.2735
-14.3186
-14.2196
-14.2688
-14.3203
-14.22
-14.2805
-14.3908
-14.0858
-14.1878
-14.2087
-14.2149
)
;
    }
    bottom
    {
        type            calculated;
        value           nonuniform List<scalar> 
64
(
-23.59
-23.5286
-23.4067
-23.226
-22.9897
-22.7017
-22.3675
-21.9933
-21.5867
-21.1558
-20.7091
-20.2549
-19.8013
-19.3554
-18.9232
-18.5098
-18.119
-17.7533
-17.4144
-17.1029
-16.8187
-16.5611
-16.329
-16.1209
-15.935
-15.7696
-15.623
-15.4932
-15.3787
-15.2777
-15.1888
-15.1107
-15.0421
-14.982
-14.9292
-14.8831
-14.8427
-14.8074
-14.7766
-14.7497
-14.7264
-14.7061
-14.6884
-14.6731
-14.6598
-14.6483
-14.6383
-14.6296
-14.622
-14.6154
-14.6097
-14.6046
-14.6002
-14.5963
-14.5929
-14.5898
-14.5872
-14.5849
-14.5829
-14.5813
-14.5799
-14.5789
-14.5782
-14.5779
)
;
    }
    defaultFaces
    {
        type            empty;
    }
}


// ************************************************************************* //
