/*--------------------------------*- C++ -*----------------------------------*\
| =========                 |                                                 |
| \\      /  F ield         | OpenFOAM: The Open Source CFD Toolbox           |
|  \\    /   O peration     | Version:  5.x                                   |
|   \\  /    A nd           | Web:      www.OpenFOAM.org                      |
|    \\/     M anipulation  |                                                 |
\*---------------------------------------------------------------------------*/
FoamFile
{
    version     2.0;
    format      ascii;
    class       volScalarField;
    location    "1.4";
    object      T;
}
// * * * * * * * * * * * * * * * * * * * * * * * * * * * * * * * * * * * * * //

dimensions      [0 0 0 1 0 0 0];

internalField   nonuniform List<scalar> 
2048
(
9.83052
9.83096
9.83184
9.83314
9.83484
9.8369
9.83931
9.84199
9.84492
9.84801
9.85122
9.85448
9.85774
9.86095
9.86405
9.86702
9.86983
9.87246
9.87489
9.87713
9.87917
9.88102
9.88269
9.88418
9.88552
9.88671
9.88776
9.88869
9.88952
9.89024
9.89088
9.89144
9.89193
9.89237
9.89274
9.89308
9.89337
9.89362
9.89384
9.89403
9.8942
9.89435
9.89447
9.89458
9.89468
9.89476
9.89483
9.8949
9.89495
9.895
9.89504
9.89508
9.89511
9.89514
9.89516
9.89518
9.8952
9.89522
9.89523
9.89524
9.89525
9.89526
9.89527
9.89527
9.49862
9.49993
9.50253
9.50639
9.51143
9.51758
9.52472
9.53271
9.54139
9.55059
9.56013
9.56982
9.5795
9.58901
9.59822
9.60702
9.61534
9.62311
9.63032
9.63693
9.64296
9.64843
9.65335
9.65776
9.6617
9.6652
9.6683
9.67105
9.67347
9.67561
9.67749
9.67914
9.68059
9.68186
9.68298
9.68395
9.68481
9.68555
9.6862
9.68677
9.68726
9.68769
9.68807
9.68839
9.68867
9.68891
9.68913
9.68931
9.68947
9.68961
9.68973
9.68984
9.68993
9.69001
9.69008
9.69015
9.69021
9.69025
9.6903
9.69033
9.69036
9.69038
9.69039
9.6904
9.18025
9.18241
9.18669
9.19304
9.20135
9.21148
9.22325
9.23644
9.25077
9.26595
9.28167
9.29765
9.31358
9.32921
9.34434
9.35878
9.37241
9.38514
9.39691
9.40771
9.41755
9.42645
9.43446
9.44163
9.44803
9.45371
9.45875
9.4632
9.46713
9.47059
9.47364
9.47631
9.47866
9.48072
9.48252
9.4841
9.48549
9.48669
9.48775
9.48867
9.48946
9.49016
9.49076
9.49128
9.49174
9.49213
9.49247
9.49277
9.49303
9.49325
9.49345
9.49362
9.49377
9.49391
9.49402
9.49413
9.49422
9.4943
9.49437
9.49442
9.49447
9.4945
9.49453
9.49454
8.87434
8.87732
8.88326
8.89205
8.90358
8.91766
8.93402
8.95236
8.97229
8.9934
9.01526
9.03743
9.05952
9.08117
9.10207
9.122
9.14077
9.15827
9.17443
9.18923
9.20268
9.21484
9.22576
9.23554
9.24424
9.25197
9.25881
9.26486
9.27019
9.27488
9.27901
9.28263
9.28582
9.28861
9.29105
9.29319
9.29506
9.2967
9.29812
9.29936
9.30044
9.30138
9.3022
9.3029
9.30352
9.30405
9.30451
9.30491
9.30526
9.30556
9.30583
9.30606
9.30626
9.30644
9.3066
9.30674
9.30687
9.30698
9.30707
9.30715
9.30721
9.30726
9.30729
9.30731
8.57994
8.58374
8.5913
8.60253
8.61726
8.63526
8.65622
8.67972
8.70528
8.73233
8.76032
8.78869
8.81689
8.84448
8.87107
8.89635
8.92012
8.94222
8.96259
8.9812
8.99809
9.01332
9.02699
9.03919
9.05005
9.05968
9.06819
9.07571
9.08233
9.08816
9.09328
9.09777
9.10172
9.10518
9.10821
9.11086
9.11318
9.11521
9.11697
9.11851
9.11985
9.12101
9.12202
9.12289
9.12365
9.12431
9.12488
9.12537
9.1258
9.12618
9.1265
9.12679
9.12704
9.12727
9.12747
9.12764
9.1278
9.12793
9.12805
9.12815
9.12823
9.12829
9.12833
9.12835
8.29625
8.30085
8.31003
8.32366
8.34159
8.36354
8.38913
8.41786
8.44911
8.48218
8.51637
8.55095
8.58528
8.61877
8.65097
8.68151
8.71013
8.73668
8.76109
8.78333
8.80347
8.82159
8.83782
8.85228
8.86513
8.87651
8.88656
8.89542
8.90322
8.91008
8.91611
8.9214
8.92604
8.93011
8.93367
8.93679
8.93951
8.94189
8.94396
8.94577
8.94734
8.9487
8.94988
8.95091
8.95179
8.95256
8.95323
8.9538
8.95431
8.95475
8.95513
8.95546
8.95576
8.95602
8.95626
8.95647
8.95665
8.95681
8.95695
8.95707
8.95717
8.95724
8.95729
8.95731
8.02255
8.02795
8.03872
8.05476
8.07589
8.10182
8.13211
8.16615
8.20321
8.24243
8.28292
8.3238
8.36428
8.40368
8.44143
8.47713
8.51049
8.54134
8.5696
8.5953
8.6185
8.63932
8.65792
8.67448
8.68915
8.70213
8.71358
8.72366
8.73253
8.74032
8.74716
8.75316
8.75843
8.76304
8.76708
8.77062
8.77371
8.7764
8.77875
8.7808
8.78257
8.78411
8.78545
8.7866
8.78761
8.78847
8.78922
8.78987
8.79044
8.79093
8.79137
8.79175
8.79208
8.79238
8.79264
8.79288
8.79309
8.79328
8.79344
8.79358
8.79369
8.79378
8.79383
8.79386
7.75824
7.76442
7.77676
7.79518
7.81952
7.84947
7.88454
7.92404
7.96707
8.0126
8.05954
8.10683
8.15353
8.19884
8.24211
8.28289
8.32086
8.35585
8.38781
8.41677
8.44284
8.46617
8.48697
8.50544
8.52178
8.5362
8.54891
8.56009
8.56991
8.57853
8.5861
8.59273
8.59855
8.60365
8.60812
8.61202
8.61544
8.61841
8.62101
8.62326
8.62522
8.62692
8.62839
8.62966
8.63076
8.63171
8.63253
8.63325
8.63387
8.63441
8.63489
8.6353
8.63567
8.636
8.6363
8.63656
8.6368
8.63701
8.63719
8.63734
8.63747
8.63757
8.63764
8.63767
7.50279
7.50973
7.5236
7.54437
7.57191
7.60592
7.64588
7.69099
7.74019
7.79223
7.84581
7.89967
7.95268
8.00391
8.05267
8.09844
8.14091
8.17989
8.21537
8.2474
8.27615
8.3018
8.32461
8.34481
8.36266
8.37838
8.39221
8.40436
8.41502
8.42438
8.43258
8.43978
8.44608
8.45161
8.45645
8.46068
8.46438
8.4676
8.47041
8.47285
8.47496
8.4768
8.47838
8.47975
8.48094
8.48196
8.48285
8.48362
8.48428
8.48487
8.48538
8.48583
8.48623
8.48658
8.4869
8.48719
8.48745
8.48768
8.48788
8.48806
8.4882
8.48831
8.48839
8.48843
7.25573
7.2634
7.27876
7.30183
7.33255
7.37066
7.41561
7.46652
7.52212
7.58094
7.64138
7.70196
7.76137
7.81858
7.87279
7.92347
7.9703
8.01312
8.05193
8.08685
8.11807
8.14586
8.17049
8.19225
8.21144
8.22832
8.24314
8.25614
8.26753
8.27752
8.28628
8.29396
8.30069
8.30659
8.31176
8.31627
8.32022
8.32365
8.32664
8.32924
8.33149
8.33344
8.33513
8.33658
8.33783
8.33892
8.33986
8.34067
8.34138
8.34199
8.34253
8.34301
8.34343
8.34381
8.34416
8.34447
8.34475
8.345
8.34522
8.34541
8.34557
8.3457
8.34578
8.34582
7.01667
7.02502
7.0418
7.0671
7.10096
7.14318
7.19325
7.25017
7.31246
7.37832
7.44588
7.51338
7.57931
7.64251
7.70214
7.75764
7.8087
7.8552
7.89716
7.93476
7.96826
7.99798
8.02425
8.04741
8.06778
8.08566
8.10134
8.11508
8.12711
8.13764
8.14688
8.15497
8.16207
8.16829
8.17373
8.17849
8.18264
8.18626
8.18941
8.19214
8.19451
8.19655
8.19832
8.19984
8.20115
8.20229
8.20327
8.20411
8.20485
8.2055
8.20606
8.20656
8.207
8.2074
8.20777
8.2081
8.2084
8.20867
8.20891
8.20912
8.2093
8.20944
8.20953
8.20958
6.78527
6.79426
6.81236
6.83978
6.8767
6.92304
6.97834
7.0415
7.11079
7.18404
7.25901
7.33363
7.40619
7.47541
7.54042
7.60064
7.65579
7.70578
7.75071
7.79079
7.82637
7.85782
7.88554
7.90992
7.93132
7.95008
7.9665
7.98086
7.99342
8.00441
8.01404
8.02249
8.02989
8.03639
8.04207
8.04704
8.05137
8.05514
8.05842
8.06126
8.06372
8.06585
8.06768
8.06925
8.07061
8.07178
8.07279
8.07367
8.07443
8.0751
8.07568
8.0762
8.07666
8.07707
8.07745
8.0778
8.07812
8.07841
8.07867
8.0789
8.0791
8.07925
8.07936
8.07941
6.56125
6.57079
6.5901
6.6195
6.65936
6.7098
6.77043
6.8401
6.91676
6.99778
7.08047
7.16242
7.24172
7.31699
7.3873
7.45213
7.51122
7.56454
7.61223
7.65459
7.69203
7.72501
7.75401
7.77945
7.80174
7.82124
7.83827
7.85315
7.86615
7.87752
7.88748
7.89622
7.90388
7.9106
7.91648
7.92162
7.9261
7.93
7.93339
7.93632
7.93886
7.94104
7.94293
7.94454
7.94593
7.94713
7.94817
7.94906
7.94984
7.95052
7.95112
7.95165
7.95212
7.95256
7.95295
7.95331
7.95365
7.95396
7.95424
7.95449
7.9547
7.95487
7.95499
7.95504
6.34434
6.35437
6.37472
6.40592
6.44856
6.50302
6.5691
6.64557
6.73002
6.81923
6.90998
6.9995
7.08565
7.16694
7.2425
7.3118
7.37467
7.43113
7.48139
7.5258
7.5649
7.59923
7.62932
7.65567
7.6787
7.69881
7.71635
7.73165
7.745
7.75667
7.76689
7.77586
7.78373
7.79064
7.79669
7.80197
7.80657
7.81058
7.81405
7.81705
7.81965
7.82188
7.8238
7.82545
7.82686
7.82808
7.82913
7.83004
7.83083
7.83152
7.83212
7.83266
7.83315
7.83359
7.83399
7.83437
7.83472
7.83505
7.83536
7.83563
7.83586
7.83604
7.83617
7.83623
6.13436
6.14477
6.16599
6.19875
6.24395
6.30232
6.37392
6.45752
6.55025
6.64814
6.74732
6.84463
6.9377
7.025
7.1057
7.17934
7.24581
7.30523
7.35784
7.4041
7.44463
7.48011
7.51113
7.53823
7.56187
7.58248
7.60043
7.61605
7.62967
7.64156
7.65198
7.66114
7.66918
7.67624
7.68242
7.68782
7.69251
7.6966
7.70014
7.7032
7.70584
7.7081
7.71004
7.71171
7.71314
7.71436
7.71542
7.71634
7.71713
7.71783
7.71844
7.71899
7.71948
7.71992
7.72034
7.72073
7.7211
7.72145
7.72177
7.72206
7.72232
7.72252
7.72266
7.72272
5.93112
5.94181
5.96369
5.99773
6.0452
6.1073
6.18447
6.27556
6.37716
6.48426
6.59225
6.69758
6.79763
6.89089
6.9766
7.05442
7.12433
7.18652
7.24127
7.28914
7.3309
7.36733
7.39911
7.42682
7.45095
7.47195
7.4902
7.50607
7.51987
7.53191
7.54248
7.55178
7.55995
7.56713
7.57342
7.5789
7.58368
7.58782
7.59141
7.59451
7.59718
7.59946
7.60142
7.60309
7.60452
7.60575
7.60681
7.60773
7.60853
7.60922
7.60983
7.61038
7.61087
7.61133
7.61175
7.61216
7.61254
7.6129
7.61325
7.61356
7.61384
7.61406
7.61421
7.61429
5.73448
5.74532
5.76762
5.80262
5.85201
5.91757
6.00033
6.09933
6.21048
6.32739
6.44458
6.55815
6.66521
6.76432
6.85492
6.93673
7.00988
7.07466
7.13135
7.1806
7.22335
7.26056
7.29294
7.32112
7.34564
7.36692
7.38539
7.40141
7.41533
7.42746
7.43812
7.44752
7.4558
7.46308
7.46944
7.47499
7.47982
7.484
7.48763
7.49075
7.49344
7.49573
7.49769
7.49936
7.50078
7.50201
7.50307
7.50398
7.50477
7.50547
7.50608
7.50662
7.50712
7.50757
7.50801
7.50842
7.50881
7.5092
7.50956
7.5099
7.5102
7.51045
7.51061
7.51069
5.54433
5.55518
5.57764
5.61322
5.6641
5.73276
5.82105
5.92842
6.04999
6.17736
6.30413
6.42614
6.5402
6.64501
6.74034
6.82595
6.90214
6.96936
7.02778
7.07815
7.12168
7.15949
7.19232
7.22084
7.24564
7.26712
7.28571
7.30183
7.31579
7.32795
7.33865
7.34812
7.35648
7.36382
7.37025
7.37585
7.38071
7.38492
7.38856
7.3917
7.39439
7.39668
7.39863
7.40029
7.4017
7.40292
7.40397
7.40487
7.40566
7.40635
7.40695
7.40749
7.40799
7.40844
7.40888
7.4093
7.40971
7.41011
7.4105
7.41086
7.41119
7.41146
7.41164
7.41173
5.36054
5.37128
5.39362
5.42936
5.48121
5.5525
5.64619
5.76246
5.89549
6.03404
6.17072
6.30139
6.42237
6.53268
6.63259
6.72177
6.8008
6.8703
6.93024
6.98147
7.02554
7.06379
7.09694
7.12569
7.15068
7.17227
7.19092
7.20706
7.221
7.23312
7.24382
7.25335
7.26176
7.26915
7.27562
7.28125
7.28612
7.29035
7.29399
7.29713
7.29982
7.30211
7.30403
7.30567
7.30707
7.30827
7.30931
7.3102
7.31098
7.31165
7.31225
7.31279
7.31327
7.31373
7.31417
7.3146
7.31502
7.31543
7.31584
7.31624
7.3166
7.31689
7.31709
7.31719
5.18304
5.19351
5.21545
5.2509
5.30313
5.37645
5.47527
5.60101
5.74687
5.89733
6.04416
6.18373
6.31149
6.42703
6.53136
6.62388
6.70551
6.77721
6.83847
6.89027
6.93463
6.97319
7.00652
7.03539
7.06049
7.08212
7.10075
7.11686
7.13072
7.14274
7.1534
7.16297
7.17143
7.17884
7.18535
7.19098
7.19585
7.20008
7.20372
7.20684
7.20953
7.2118
7.2137
7.2153
7.21668
7.21786
7.21888
7.21976
7.22052
7.22119
7.22178
7.2223
7.22278
7.22323
7.22368
7.22411
7.22454
7.22497
7.22541
7.22584
7.22623
7.22655
7.22676
7.22687
5.01173
5.02181
5.04305
5.07773
5.12966
5.20426
5.30778
5.4436
5.60408
5.76717
5.92428
6.07303
6.20735
6.32774
6.43639
6.53196
6.61594
6.68983
6.7522
6.80423
6.84863
6.88739
6.92079
6.94966
6.97484
6.99643
7.01497
7.03102
7.04473
7.05659
7.06717
7.07678
7.08526
7.09269
7.09922
7.10484
7.10969
7.11391
7.11753
7.12064
7.12332
7.12556
7.12742
7.12899
7.13035
7.1315
7.1325
7.13336
7.13411
7.13476
7.13534
7.13585
7.13632
7.13677
7.13721
7.13765
7.13809
7.13854
7.139
7.13946
7.1399
7.14025
7.14047
7.14059
4.84654
4.85609
4.87634
4.90976
4.96066
5.03562
5.14317
5.28968
5.46719
5.64356
5.81082
5.96921
6.10973
6.23445
6.34743
6.4457
6.53173
6.60791
6.67118
6.72306
6.76723
6.80615
6.83949
6.86825
6.89349
6.91497
6.93334
6.94931
6.96283
6.97444
6.98491
6.99458
7.00308
7.01049
7.01704
7.02264
7.02745
7.03166
7.03525
7.03834
7.04101
7.04322
7.04503
7.04655
7.04788
7.04901
7.04998
7.05082
7.05155
7.05219
7.05275
7.05325
7.05371
7.05415
7.0546
7.05504
7.05548
7.05595
7.05643
7.05693
7.05741
7.0578
7.05804
7.05816
4.68737
4.69628
4.71527
4.74695
4.79603
4.87025
4.98085
5.1386
5.33646
5.52654
5.70347
5.87222
6.01841
6.14677
6.26426
6.36481
6.45249
6.53124
6.5952
6.64646
6.6901
6.72921
6.76238
6.7909
6.81623
6.83752
6.85564
6.87154
6.8848
6.89608
6.9064
6.91619
6.92468
6.93206
6.93864
6.94419
6.94895
6.95315
6.9567
6.95974
6.96241
6.96458
6.96633
6.9678
6.9691
6.9702
6.97114
6.97197
6.97268
6.9733
6.97385
6.97433
6.97477
6.97521
6.97566
6.9761
6.97655
6.97703
6.97753
6.97807
6.97861
6.97904
6.97929
6.97941
4.53415
4.54231
4.55979
4.58925
4.6357
4.70793
4.82019
4.98951
5.21237
5.41618
5.60179
5.78211
5.93317
6.06421
6.18672
6.28898
6.3778
6.45969
6.52405
6.57415
6.61692
6.65638
6.68923
6.71735
6.74286
6.76388
6.78165
6.79753
6.81047
6.82132
6.83144
6.84142
6.8499
6.8572
6.86384
6.86933
6.87399
6.87821
6.8817
6.88469
6.88737
6.8895
6.89117
6.89258
6.89385
6.89492
6.89583
6.89664
6.89733
6.89792
6.89846
6.89893
6.89935
6.89977
6.90023
6.90067
6.90112
6.90162
6.90214
6.90271
6.90333
6.9038
6.90406
6.90418
4.38678
4.3941
4.40986
4.43667
4.47967
4.54849
4.66054
4.84129
5.09574
5.3126
5.50514
5.69907
5.85382
5.98619
6.11475
6.21793
6.30714
6.39315
6.45756
6.50581
6.54733
6.58748
6.61982
6.64734
6.67323
6.69385
6.71114
6.72712
6.73966
6.74996
6.75982
6.77014
6.77857
6.78574
6.79249
6.79787
6.80242
6.80667
6.81008
6.813
6.81572
6.81779
6.81937
6.82071
6.82197
6.823
6.82387
6.82468
6.82534
6.8259
6.82644
6.82688
6.82728
6.82769
6.82816
6.82859
6.82905
6.82957
6.83009
6.8307
6.83142
6.83192
6.83219
6.83231
4.24516
4.25157
4.26543
4.28922
4.32798
4.39185
4.50125
4.69244
4.98787
5.21592
5.4126
5.62347
5.78012
5.91199
6.04841
6.15137
6.23991
6.33166
6.39558
6.44115
6.48096
6.52239
6.55397
6.58059
6.6072
6.62725
6.64389
6.66017
6.67221
6.68181
6.69134
6.7022
6.71053
6.71749
6.72444
6.72968
6.73406
6.73839
6.7417
6.74451
6.74732
6.74933
6.75079
6.75205
6.75331
6.75428
6.75511
6.75592
6.75655
6.75709
6.75762
6.75804
6.7584
6.7588
6.75929
6.75972
6.76016
6.76071
6.76124
6.76188
6.76272
6.76326
6.76353
6.76364
4.10917
4.11462
4.12644
4.14689
4.18072
4.23805
4.3417
4.54091
4.89068
5.12626
5.32289
5.55599
5.71187
5.84065
5.98796
6.08903
6.17538
6.27535
6.33797
6.37987
6.41738
6.46105
6.49147
6.5168
6.54468
6.56391
6.57966
6.59656
6.60797
6.61669
6.62578
6.63751
6.64562
6.65228
6.65956
6.66459
6.66873
6.67323
6.67639
6.67907
6.68203
6.68395
6.68527
6.68643
6.68772
6.68864
6.68941
6.69024
6.69083
6.69133
6.69187
6.69226
6.69259
6.69297
6.69349
6.6939
6.69433
6.69491
6.69543
6.6961
6.69711
6.69767
6.69793
6.69803
3.97871
3.98316
3.99285
4.00973
4.03801
4.08724
4.18142
4.38384
4.807
5.04369
5.23416
5.49773
5.64881
5.77097
5.93392
6.03064
6.11259
6.22456
6.2846
6.32166
6.35613
6.40351
6.43215
6.45564
6.48563
6.50366
6.51818
6.53622
6.5468
6.55444
6.56291
6.57598
6.58372
6.58991
6.59774
6.60245
6.60628
6.61107
6.61402
6.61651
6.61972
6.62152
6.62267
6.62372
6.62507
6.62592
6.62662
6.62749
6.62803
6.62849
6.62905
6.62941
6.62969
6.63004
6.63061
6.631
6.63141
6.63204
6.63254
6.63321
6.63444
6.63502
6.63526
6.63535
3.85362
3.85706
3.86457
3.87772
3.9
3.93971
4.02016
4.21733
4.74077
4.96816
5.14393
5.45035
5.59067
5.70134
5.88717
5.97592
6.05037
6.17985
6.23528
6.26622
6.29664
6.3499
6.37584
6.39671
6.43008
6.44634
6.45917
6.47911
6.48856
6.49488
6.5025
6.51757
6.52467
6.53019
6.5389
6.54315
6.54652
6.55181
6.55446
6.55667
6.56029
6.56191
6.56286
6.56376
6.56524
6.566
6.56661
6.56755
6.56803
6.56843
6.56904
6.56935
6.56958
6.5699
6.57054
6.5709
6.57126
6.57197
6.57242
6.57307
6.5746
6.57517
6.57538
6.57545
3.73379
3.73622
3.74154
3.75088
3.76685
3.79589
3.85806
4.03605
4.69748
4.89944
5.04883
5.4163
5.5371
5.6297
5.84905
5.92459
5.98717
6.14215
6.18981
6.21328
6.23823
6.30052
6.32238
6.33954
6.37816
6.39179
6.40229
6.42524
6.43312
6.43787
6.44426
6.46229
6.46836
6.4729
6.48297
6.48653
6.48929
6.49536
6.49757
6.49939
6.50362
6.50499
6.5057
6.50643
6.50812
6.50874
6.50924
6.5103
6.5107
6.51102
6.5117
6.51196
6.51214
6.5124
6.51316
6.51346
6.51376
6.51459
6.51496
6.51554
6.51749
6.518
6.51817
6.51822
3.61905
3.62049
3.62364
3.62919
3.63872
3.65632
3.69591
3.83282
4.68449
4.83699
4.94443
5.39901
5.48764
5.55337
5.82152
5.87633
5.92105
6.11275
6.14786
6.16258
6.1801
6.25583
6.27157
6.28358
6.33009
6.33986
6.34717
6.3747
6.38032
6.38329
6.38788
6.41021
6.41463
6.41781
6.42992
6.43247
6.4344
6.44165
6.44323
6.44451
6.44965
6.45064
6.45108
6.45159
6.45359
6.45403
6.45438
6.45563
6.45591
6.45614
6.45694
6.45712
6.45723
6.45742
6.45835
6.45856
6.45878
6.45978
6.46004
6.46048
6.463
6.46339
6.4635
6.46353
3.50925
3.50973
3.51076
3.5126
3.51575
3.52162
3.53535
3.59808
4.71161
4.77983
4.82497
5.40318
5.44166
5.46896
5.80727
5.83077
5.84954
6.09352
6.10892
6.11398
6.12125
6.21652
6.22322
6.22814
6.28622
6.29037
6.29334
6.32763
6.33002
6.33103
6.333
6.36145
6.36336
6.36466
6.37976
6.38085
6.38163
6.39064
6.39131
6.39184
6.3983
6.39873
6.39888
6.39909
6.40157
6.40176
6.4019
6.40344
6.40356
6.40365
6.40465
6.40472
6.40476
6.40484
6.40602
6.4061
6.4062
6.40743
6.40754
6.40774
6.41104
6.41122
6.41126
6.41127
)
;

boundaryField
{
    left
    {
        type            zeroGradient;
    }
    right
    {
        type            zeroGradient;
    }
    interface
    {
        type            fixedValue;
        value           nonuniform List<scalar> 
64
(
3.45557
3.45557
3.45557
3.45557
3.45557
3.45557
3.45557
3.45557
4.7525
4.7525
4.7525
5.41949
5.41949
5.41949
5.80864
5.80864
5.80864
6.09017
6.09017
6.09017
6.09017
6.19965
6.19965
6.19965
6.26622
6.26622
6.26622
6.30548
6.30548
6.30548
6.30548
6.33833
6.33833
6.33833
6.35563
6.35563
6.35563
6.36595
6.36595
6.36595
6.37338
6.37338
6.37338
6.37338
6.37622
6.37622
6.37622
6.37799
6.37799
6.37799
6.37912
6.37912
6.37912
6.37912
6.38048
6.38048
6.38048
6.38189
6.38189
6.38189
6.38574
6.38574
6.38574
6.38574
)
;
    }
    bottom
    {
        type            fixedValue;
        value           uniform 10;
    }
    defaultFaces
    {
        type            empty;
    }
}


// ************************************************************************* //
