/*--------------------------------*- C++ -*----------------------------------*\
| =========                 |                                                 |
| \\      /  F ield         | OpenFOAM: The Open Source CFD Toolbox           |
|  \\    /   O peration     | Version:  5.x                                   |
|   \\  /    A nd           | Web:      www.OpenFOAM.org                      |
|    \\/     M anipulation  |                                                 |
\*---------------------------------------------------------------------------*/
FoamFile
{
    version     2.0;
    format      ascii;
    class       volScalarField;
    location    "1.5";
    object      T;
}
// * * * * * * * * * * * * * * * * * * * * * * * * * * * * * * * * * * * * * //

dimensions      [0 0 0 1 0 0 0];

internalField   nonuniform List<scalar> 
2048
(
9.83273
9.8332
9.83412
9.83548
9.83727
9.83945
9.84198
9.84481
9.8479
9.85117
9.85456
9.85802
9.86147
9.86488
9.86818
9.87135
9.87435
9.87716
9.87977
9.88218
9.88438
9.88637
9.88818
9.8898
9.89126
9.89255
9.89371
9.89473
9.89563
9.89644
9.89714
9.89777
9.89831
9.8988
9.89922
9.8996
9.89993
9.90021
9.90046
9.90068
9.90088
9.90104
9.90119
9.90132
9.90143
9.90153
9.90161
9.90168
9.90175
9.9018
9.90185
9.90189
9.90193
9.90196
9.90199
9.90202
9.90204
9.90206
9.90208
9.90209
9.9021
9.90211
9.90212
9.90212
9.50514
9.50651
9.50925
9.5133
9.51861
9.52508
9.5326
9.54103
9.55019
9.55991
9.57
9.58026
9.59053
9.60063
9.61043
9.61981
9.6287
9.63702
9.64475
9.65186
9.65836
9.66426
9.66959
9.67438
9.67867
9.68249
9.68589
9.6889
9.69157
9.69393
9.69601
9.69784
9.69946
9.70088
9.70213
9.70323
9.7042
9.70504
9.70578
9.70643
9.707
9.70749
9.70792
9.7083
9.70862
9.70891
9.70915
9.70937
9.70955
9.70972
9.70986
9.70999
9.7101
9.71019
9.71028
9.71036
9.71042
9.71048
9.71053
9.71057
9.7106
9.71063
9.71064
9.71065
9.19084
9.1931
9.1976
9.20427
9.21302
9.22368
9.23608
9.24998
9.2651
9.28113
9.29776
9.31467
9.33157
9.34818
9.36428
9.37968
9.39424
9.40786
9.4205
9.43211
9.44271
9.45233
9.461
9.46879
9.47575
9.48196
9.48748
9.49236
9.49669
9.50051
9.50389
9.50686
9.50948
9.51178
9.51381
9.51559
9.51716
9.51853
9.51972
9.52077
9.52169
9.52249
9.52318
9.52379
9.52432
9.52477
9.52517
9.52552
9.52582
9.52609
9.52632
9.52652
9.5267
9.52686
9.527
9.52712
9.52723
9.52732
9.5274
9.52747
9.52752
9.52756
9.52759
9.5276
8.88873
8.89187
8.8981
8.90735
8.91948
8.93429
8.95152
8.97084
8.99186
9.01415
9.03726
9.06074
9.08417
9.10716
9.12941
9.15066
9.17072
9.18945
9.20679
9.22271
9.23722
9.25035
9.26219
9.2728
9.28229
9.29073
9.29822
9.30486
9.31073
9.31592
9.32049
9.32453
9.32808
9.3312
9.33395
9.33636
9.33848
9.34033
9.34196
9.34338
9.34462
9.3457
9.34664
9.34746
9.34817
9.34879
9.34933
9.3498
9.3502
9.35056
9.35087
9.35115
9.35139
9.3516
9.35179
9.35196
9.35211
9.35223
9.35234
9.35243
9.35251
9.35257
9.3526
9.35262
8.59788
8.60187
8.60981
8.62161
8.6371
8.65604
8.6781
8.70286
8.7298
8.75837
8.78796
8.81798
8.84789
8.8772
8.90549
8.93246
8.95785
8.98152
9.00338
9.02341
9.04162
9.05809
9.0729
9.08616
9.09799
9.10851
9.11784
9.1261
9.1334
9.13985
9.14553
9.15053
9.15494
9.15882
9.16222
9.16522
9.16784
9.17015
9.17216
9.17392
9.17546
9.17679
9.17796
9.17897
9.17985
9.18062
9.18128
9.18186
9.18237
9.18281
9.1832
9.18353
9.18383
9.1841
9.18433
9.18454
9.18472
9.18488
9.18502
9.18514
9.18523
9.1853
9.18535
9.18537
8.31746
8.3223
8.33193
8.34626
8.3651
8.38818
8.41511
8.44536
8.4783
8.51321
8.54934
8.58594
8.62234
8.65791
8.69218
8.72475
8.75534
8.78379
8.80998
8.83393
8.85565
8.87525
8.89285
8.90857
8.92258
8.93502
8.94604
8.95579
8.96439
8.97198
8.97867
8.98456
8.98975
8.99431
8.99833
9.00185
9.00494
9.00764
9.01001
9.01208
9.01388
9.01545
9.01682
9.01801
9.01904
9.01994
9.02072
9.02139
9.02199
9.0225
9.02295
9.02335
9.0237
9.02401
9.02429
9.02453
9.02475
9.02494
9.02511
9.02524
9.02536
9.02544
9.0255
9.02553
8.04676
8.05244
8.06374
8.08058
8.10278
8.13004
8.1619
8.19774
8.23679
8.27817
8.32095
8.36421
8.40712
8.44896
8.48915
8.52723
8.56289
8.59594
8.6263
8.65396
8.679
8.70154
8.72172
8.73973
8.75574
8.76994
8.7825
8.7936
8.80339
8.81201
8.81962
8.82631
8.8322
8.83738
8.84193
8.84593
8.84944
8.85251
8.85519
8.85754
8.85958
8.86136
8.86291
8.86425
8.86542
8.86643
8.86731
8.86807
8.86874
8.86932
8.86983
8.87028
8.87068
8.87103
8.87135
8.87163
8.87188
8.87209
8.87228
8.87244
8.87258
8.87268
8.87274
8.87278
7.7852
7.79168
7.80463
7.82397
7.84953
7.88099
7.91786
7.95943
8.00475
8.05277
8.10235
8.15239
8.20189
8.25001
8.29606
8.33957
8.38017
8.41768
8.45202
8.48321
8.51136
8.53663
8.55921
8.57931
8.59715
8.61295
8.6269
8.63921
8.65006
8.65962
8.66804
8.67544
8.68196
8.6877
8.69273
8.69716
8.70104
8.70443
8.7074
8.70999
8.71224
8.71421
8.71591
8.71739
8.71868
8.71979
8.72076
8.7216
8.72233
8.72297
8.72353
8.72402
8.72446
8.72485
8.7252
8.72551
8.72579
8.72603
8.72625
8.72643
8.72658
8.7267
8.72677
8.72681
7.53222
7.5395
7.55406
7.57586
7.60476
7.64047
7.68246
7.72991
7.78171
7.83658
7.89315
7.95012
8.00629
8.06071
8.11261
8.16145
8.20687
8.24867
8.28681
8.32134
8.3524
8.3802
8.40498
8.42699
8.44648
8.46371
8.47891
8.49231
8.5041
8.51448
8.52362
8.53166
8.53873
8.54495
8.55042
8.55522
8.55943
8.56311
8.56633
8.56913
8.57157
8.57369
8.57554
8.57713
8.57852
8.57972
8.58076
8.58166
8.58245
8.58314
8.58375
8.58428
8.58475
8.58518
8.58555
8.58589
8.5862
8.58647
8.58671
8.58691
8.58708
8.58721
8.5873
8.58734
7.2874
7.29544
7.31155
7.33575
7.36797
7.40797
7.45519
7.5087
7.56722
7.6292
7.69299
7.75705
7.82001
7.88077
7.93848
7.99257
8.04268
8.08861
8.13036
8.16801
8.20178
8.2319
8.25868
8.28242
8.3034
8.32191
8.33821
8.35256
8.36518
8.37628
8.38604
8.39464
8.4022
8.40885
8.41469
8.41982
8.42431
8.42825
8.43168
8.43467
8.43727
8.43953
8.44149
8.44319
8.44466
8.44593
8.44703
8.44799
8.44883
8.44956
8.4502
8.45077
8.45127
8.45172
8.45213
8.45249
8.45282
8.45312
8.45338
8.4536
8.45379
8.45393
8.45403
8.45408
7.05034
7.05909
7.07668
7.1032
7.1387
7.183
7.23556
7.29536
7.36087
7.43025
7.50154
7.57289
7.64275
7.70987
7.77336
7.83261
7.88726
7.93717
7.98233
8.02291
8.05916
8.0914
8.11999
8.14526
8.16756
8.1872
8.20447
8.21965
8.23298
8.2447
8.25501
8.26408
8.27206
8.27908
8.28525
8.29067
8.29541
8.29956
8.30318
8.30633
8.30907
8.31144
8.3135
8.31528
8.31682
8.31815
8.31931
8.32031
8.32118
8.32194
8.32262
8.32321
8.32374
8.32421
8.32464
8.32503
8.32538
8.3257
8.32599
8.32623
8.32644
8.3266
8.32671
8.32676
6.82071
6.83012
6.84908
6.87782
6.91651
6.9651
7.02312
7.08944
7.16228
7.23941
7.31847
7.39733
7.4742
7.54773
7.61695
7.68126
7.74032
7.79401
7.84239
7.88568
7.9242
7.95836
7.98856
8.0152
8.03865
8.05926
8.07737
8.09325
8.1072
8.11944
8.13021
8.13968
8.14803
8.15537
8.16182
8.16748
8.17243
8.17677
8.18054
8.18383
8.18668
8.18916
8.19129
8.19314
8.19473
8.19611
8.19731
8.19834
8.19925
8.20004
8.20073
8.20135
8.20189
8.20239
8.20284
8.20325
8.20363
8.20397
8.20427
8.20454
8.20477
8.20494
8.20506
8.20512
6.59823
6.60823
6.62844
6.65924
6.70099
6.75385
6.81744
6.89055
6.97109
7.05634
7.14352
7.23011
7.31412
7.39406
7.46896
7.53821
7.60152
7.65882
7.71021
7.75599
7.79657
7.83244
7.86405
7.89188
7.91633
7.93778
7.95659
7.97307
7.98752
8.0002
8.01135
8.02117
8.02981
8.03743
8.04411
8.04998
8.05512
8.0596
8.06351
8.06691
8.06986
8.07241
8.07461
8.07651
8.07814
8.07956
8.08078
8.08184
8.08277
8.08358
8.08429
8.08492
8.08549
8.086
8.08647
8.0869
8.08729
8.08766
8.08799
8.08828
8.08852
8.08872
8.08885
8.08891
6.38269
6.39318
6.41449
6.44715
6.49179
6.54884
6.61809
6.69828
6.78695
6.88078
6.97642
7.07099
7.16223
7.24859
7.32908
7.40315
7.47055
7.53127
7.58547
7.63352
7.67593
7.71329
7.74613
7.77498
7.80028
7.82244
7.84183
7.8588
7.87365
7.88669
7.89815
7.90825
7.91715
7.92499
7.93188
7.93792
7.9432
7.94782
7.95183
7.95532
7.95834
7.96095
7.9632
7.96514
7.9668
7.96824
7.96949
7.97057
7.97151
7.97233
7.97306
7.9737
7.97428
7.9748
7.97529
7.97573
7.97615
7.97653
7.97688
7.9772
7.97747
7.97768
7.97782
7.97789
6.17388
6.18477
6.20697
6.24126
6.28856
6.34966
6.42465
6.51227
6.60958
6.71247
6.81695
6.91972
7.01829
7.11104
7.19704
7.27579
7.3471
7.41105
7.46784
7.51792
7.56194
7.60058
7.63448
7.66418
7.69019
7.71293
7.73279
7.75014
7.76532
7.77862
7.79033
7.80065
7.80976
7.81779
7.82485
7.83103
7.83644
7.84115
7.84526
7.84882
7.8519
7.85455
7.85683
7.85879
7.86048
7.86193
7.86319
7.86428
7.86523
7.86606
7.86679
7.86744
7.86803
7.86856
7.86906
7.86952
7.86996
7.87036
7.87074
7.87108
7.87137
7.8716
7.87176
7.87183
5.97164
5.98282
6.0057
6.04131
6.09097
6.15594
6.23671
6.33213
6.43867
6.55118
6.6649
6.77611
6.88207
6.98115
7.07254
7.15579
7.23084
7.29783
7.35699
7.40887
7.45426
7.494
7.52877
7.55918
7.58576
7.60896
7.62919
7.64683
7.66224
7.67574
7.68762
7.69813
7.70741
7.71559
7.72278
7.72908
7.73458
7.73938
7.74355
7.74716
7.75029
7.75297
7.75527
7.75724
7.75894
7.7604
7.76166
7.76276
7.76371
7.76454
7.76528
7.76593
7.76652
7.76706
7.76757
7.76805
7.7685
7.76892
7.76932
7.76969
7.77
7.77025
7.77043
7.77051
5.77586
5.78718
5.8105
5.8471
5.89874
5.96729
6.05386
6.15749
6.27397
6.39672
6.52007
6.63995
6.75333
6.85866
6.95529
7.04288
7.12147
7.19131
7.25263
7.30605
7.35259
7.39321
7.42869
7.45965
7.48669
7.51024
7.53074
7.54859
7.56415
7.57777
7.58978
7.60043
7.60985
7.61815
7.62545
7.63184
7.63741
7.64227
7.64649
7.65014
7.65329
7.65599
7.6583
7.66027
7.66197
7.66343
7.66469
7.66578
7.66673
7.66756
7.6683
7.66895
7.66954
7.67009
7.6706
7.67109
7.67156
7.672
7.67243
7.67282
7.67316
7.67344
7.67363
7.67372
5.58641
5.59776
5.62124
5.65842
5.71159
5.78335
5.87565
5.98797
6.11527
6.24892
6.38229
6.51106
6.63186
6.74328
6.84501
6.93672
7.01866
7.09119
7.15445
7.20915
7.25658
7.29792
7.33393
7.36533
7.39271
7.41652
7.43719
7.45517
7.47081
7.48448
7.49656
7.50732
7.51684
7.52524
7.53263
7.53908
7.54471
7.54961
7.55386
7.55753
7.5607
7.56341
7.56571
7.56767
7.56936
7.57081
7.57206
7.57315
7.57409
7.57492
7.57565
7.5763
7.57689
7.57744
7.57796
7.57846
7.57894
7.5794
7.57985
7.58028
7.58065
7.58095
7.58116
7.58126
5.40322
5.41443
5.43778
5.47513
5.52929
5.60376
5.70165
5.82318
5.96238
6.10767
6.25141
6.3893
6.51743
6.63473
6.74141
6.83702
6.92209
6.99718
7.06216
7.11786
7.16593
7.20781
7.24422
7.27591
7.30355
7.32752
7.34829
7.36633
7.38196
7.39562
7.40773
7.41856
7.42817
7.43665
7.4441
7.4506
7.45626
7.46118
7.46545
7.46914
7.47231
7.47501
7.4773
7.47924
7.48091
7.48235
7.48359
7.48466
7.4856
7.48641
7.48714
7.48778
7.48837
7.48892
7.48944
7.48995
7.49044
7.49093
7.4914
7.49186
7.49227
7.4926
7.49282
7.49293
5.2262
5.23714
5.26006
5.29709
5.35162
5.42818
5.53136
5.66269
5.8152
5.97288
6.12725
6.2745
6.40983
6.53274
6.64421
6.74347
6.83144
6.90901
6.97549
7.03187
7.08033
7.1226
7.15927
7.19113
7.21895
7.243
7.26378
7.28182
7.2974
7.31096
7.32305
7.33396
7.34363
7.35216
7.35967
7.36619
7.37186
7.3768
7.38107
7.38476
7.38793
7.39062
7.39288
7.39479
7.39644
7.39786
7.39908
7.40014
7.40106
7.40187
7.40258
7.40321
7.40379
7.40434
7.40487
7.40538
7.40589
7.40639
7.40689
7.40738
7.40783
7.40819
7.40843
7.40855
5.05528
5.06581
5.08799
5.1242
5.17841
5.25626
5.36429
5.50604
5.67371
5.84451
6.00962
6.16656
6.30885
6.43697
6.55314
6.65577
6.74637
6.82641
6.89419
6.95089
6.99946
7.04201
7.07881
7.11073
7.13868
7.16273
7.18344
7.20145
7.21689
7.23029
7.24232
7.2533
7.26303
7.27158
7.27914
7.28567
7.29133
7.29628
7.30054
7.30421
7.30739
7.31005
7.31227
7.31414
7.31576
7.31715
7.31835
7.3194
7.3203
7.32109
7.32179
7.32241
7.32298
7.32352
7.32406
7.32458
7.32509
7.32562
7.32614
7.32667
7.32716
7.32756
7.32782
7.32794
4.89039
4.90037
4.92151
4.9564
5.00951
5.08771
5.19987
5.35269
5.53798
5.72257
5.89829
6.0654
6.21428
6.34707
6.46797
6.5736
6.66652
6.74916
6.81802
6.87462
6.923
6.9658
7.00259
7.03445
7.06252
7.08648
7.10705
7.125
7.14024
7.15339
7.16531
7.1764
7.18617
7.19473
7.20233
7.20885
7.21448
7.21942
7.22366
7.22731
7.23049
7.23312
7.23529
7.23711
7.23871
7.24007
7.24124
7.24227
7.24315
7.24392
7.24461
7.24522
7.24577
7.2463
7.24684
7.24737
7.24789
7.24844
7.24899
7.24955
7.2501
7.25053
7.25081
7.25094
4.73147
4.74077
4.76059
4.79365
4.84485
4.92225
5.03753
5.20194
5.40831
5.60711
5.79295
5.971
6.1259
6.26264
6.38848
6.49667
6.5915
6.67708
6.74677
6.80278
6.85064
6.89373
6.93038
6.96203
6.99025
7.01405
7.03437
7.05228
7.06726
7.08007
7.09184
7.10308
7.11287
7.12141
7.12907
7.13555
7.14112
7.14608
7.15028
7.15389
7.15708
7.15968
7.16177
7.16354
7.16511
7.16643
7.16758
7.16859
7.16945
7.1702
7.17087
7.17146
7.17199
7.17252
7.17306
7.17359
7.17413
7.17469
7.17526
7.17587
7.17648
7.17695
7.17724
7.17737
4.57843
4.58695
4.60519
4.63593
4.68437
4.75966
4.87662
5.05296
5.28519
5.49821
5.69314
5.88342
6.04352
6.1832
6.31455
6.42469
6.52087
6.61003
6.68026
6.73506
6.78204
6.8256
6.86196
6.89321
6.92171
6.94524
6.96521
6.98314
6.99778
7.01012
7.02169
7.03319
7.04298
7.05145
7.0592
7.06562
7.07111
7.07609
7.08023
7.08379
7.08701
7.08956
7.09156
7.09326
7.09481
7.09609
7.0972
7.0982
7.09904
7.09976
7.10042
7.10099
7.1015
7.10202
7.10257
7.1031
7.10363
7.10422
7.10481
7.10546
7.10615
7.10667
7.10696
7.1071
4.43119
4.43883
4.45528
4.48325
4.52808
4.59979
4.71647
4.90461
5.16951
5.39601
5.5982
5.8029
5.96694
6.10814
6.24613
6.35736
6.4541
6.54795
6.61833
6.67117
6.71684
6.76124
6.79711
6.82774
6.85673
6.87986
6.89933
6.91741
6.93163
6.94335
6.95466
6.96658
6.97634
6.98468
6.99258
6.9989
7.00425
7.00929
7.01335
7.01683
7.02012
7.02261
7.02451
7.02613
7.02766
7.0289
7.02996
7.03096
7.03177
7.03246
7.03312
7.03366
7.03414
7.03464
7.03521
7.03573
7.03627
7.03688
7.03748
7.03817
7.03897
7.03953
7.03983
7.03996
4.28967
4.29636
4.31082
4.33563
4.37604
4.44257
4.55644
4.75533
5.06262
5.30065
5.5072
5.72984
5.89593
6.03669
6.18332
6.29441
6.39057
6.49089
6.56084
6.6108
6.65465
6.70057
6.73564
6.76534
6.7952
6.81773
6.8365
6.85497
6.86865
6.8796
6.89055
6.90313
6.91279
6.92092
6.92906
6.93523
6.9404
6.94555
6.9495
6.95288
6.95627
6.95869
6.96045
6.96198
6.96352
6.96471
6.96572
6.96672
6.96749
6.96815
6.96881
6.96932
6.96977
6.97026
6.97085
6.97136
6.97189
6.97253
6.97314
6.97386
6.9748
6.97539
6.97569
6.97582
4.15375
4.15943
4.17177
4.1931
4.22835
4.28805
4.3959
4.603
4.96654
5.21226
5.41878
5.66501
5.83029
5.96788
6.12642
6.23556
6.32948
6.43904
6.50767
6.55365
6.59504
6.64355
6.67737
6.70569
6.73705
6.7587
6.7765
6.79572
6.80871
6.81867
6.82913
6.84277
6.8522
6.85998
6.86855
6.87447
6.87938
6.88475
6.88853
6.89175
6.89535
6.89767
6.89927
6.90068
6.90226
6.90339
6.90433
6.90536
6.90609
6.9067
6.90737
6.90785
6.90826
6.90872
6.90935
6.90985
6.91036
6.91105
6.91164
6.91239
6.91351
6.91413
6.91442
6.91454
4.02332
4.02797
4.03808
4.05568
4.08515
4.13641
4.23437
4.44471
4.88421
5.13092
5.33102
5.60957
5.76979
5.90041
6.07603
6.18055
6.26982
6.3928
6.45868
6.49939
6.53749
6.59024
6.62214
6.64843
6.68226
6.70259
6.71903
6.73961
6.75167
6.7604
6.77019
6.78541
6.79443
6.80168
6.81093
6.8165
6.82103
6.82678
6.83032
6.83331
6.83724
6.83942
6.84081
6.84209
6.84376
6.8448
6.84566
6.84674
6.84741
6.84798
6.84868
6.84912
6.84947
6.8499
6.8506
6.85107
6.85155
6.8523
6.85287
6.85362
6.85498
6.85561
6.85588
6.85598
3.89827
3.90186
3.90969
3.9234
3.94661
3.98795
4.0716
4.2764
4.81974
5.0566
5.24133
5.56533
5.71413
5.83259
6.03312
6.12909
6.21031
6.35283
6.41373
6.44774
6.48141
6.54084
6.56976
6.59315
6.6309
6.64926
6.66381
6.68662
6.6974
6.70463
6.71346
6.73107
6.73935
6.74583
6.75614
6.76117
6.76519
6.77155
6.77473
6.7774
6.78183
6.78381
6.78496
6.78607
6.7879
6.78882
6.78958
6.79076
6.79135
6.79185
6.79261
6.79299
6.79328
6.79367
6.79447
6.79489
6.79533
6.79617
6.79669
6.79741
6.7991
6.79972
6.79996
6.80004
3.77844
3.78098
3.78653
3.79627
3.81291
3.84314
3.90777
4.09257
4.77883
4.98907
5.14615
5.53488
5.66299
5.7622
5.99919
6.0809
6.14929
6.32016
6.37259
6.3984
6.42607
6.49569
6.52008
6.53936
6.58313
6.59855
6.61048
6.63679
6.64579
6.65124
6.65865
6.67976
6.68684
6.69219
6.70414
6.70836
6.71166
6.71898
6.72164
6.72385
6.72905
6.73073
6.73159
6.73248
6.73458
6.73535
6.73596
6.73729
6.73779
6.73819
6.73905
6.73937
6.73958
6.73991
6.74085
6.74121
6.74157
6.74255
6.74298
6.74363
6.74577
6.74634
6.74652
6.74658
3.66371
3.66521
3.6685
3.67428
3.68422
3.70254
3.74368
3.8858
4.76914
4.92778
5.04083
5.5219
5.61588
5.68639
5.97636
6.03567
6.08462
6.29626
6.33492
6.35112
6.37058
6.45533
6.47291
6.48643
6.53924
6.5503
6.55862
6.59024
6.59668
6.60008
6.60542
6.6316
6.63677
6.64051
6.65493
6.65796
6.66026
6.66903
6.67093
6.67249
6.67883
6.68005
6.68059
6.6812
6.6837
6.68425
6.68467
6.68626
6.68661
6.68688
6.6879
6.68812
6.68826
6.68849
6.68965
6.68991
6.69017
6.69134
6.69165
6.69214
6.69491
6.69535
6.69547
6.6955
3.55391
3.55441
3.55549
3.5574
3.56069
3.5668
3.58106
3.64616
4.80086
4.87177
4.91932
5.53139
5.57218
5.60151
5.96759
5.99302
6.0136
6.28322
6.30019
6.30576
6.31385
6.42057
6.42807
6.43361
6.49965
6.50435
6.50774
6.54718
6.54992
6.55108
6.55337
6.58676
6.58899
6.59053
6.60854
6.60982
6.61076
6.62168
6.62248
6.62313
6.63113
6.63165
6.63184
6.63209
6.63519
6.63542
6.63559
6.63755
6.6377
6.63781
6.63907
6.63916
6.6392
6.6393
6.64077
6.64088
6.64099
6.64246
6.64258
6.6428
6.64643
6.64664
6.64668
6.64669
)
;

boundaryField
{
    left
    {
        type            zeroGradient;
    }
    right
    {
        type            zeroGradient;
    }
    interface
    {
        type            fixedValue;
        value           nonuniform List<scalar> 
64
(
3.50023
3.50023
3.50023
3.50023
3.50023
3.50023
3.50023
3.50023
4.84501
4.84501
4.84501
5.55113
5.55113
5.55113
5.97231
5.97231
5.97231
6.28353
6.28353
6.28353
6.28353
6.40621
6.40621
6.40621
6.48193
6.48193
6.48193
6.52712
6.52712
6.52712
6.52712
6.56567
6.56567
6.56567
6.58632
6.58632
6.58632
6.59882
6.59882
6.59882
6.60802
6.60802
6.60802
6.60802
6.61157
6.61157
6.61157
6.6138
6.6138
6.6138
6.61524
6.61524
6.61524
6.61524
6.61692
6.61692
6.61692
6.61861
6.61861
6.61861
6.62284
6.62284
6.62284
6.62284
)
;
    }
    bottom
    {
        type            fixedValue;
        value           uniform 10;
    }
    defaultFaces
    {
        type            empty;
    }
}


// ************************************************************************* //
