/*--------------------------------*- C++ -*----------------------------------*\
| =========                 |                                                 |
| \\      /  F ield         | OpenFOAM: The Open Source CFD Toolbox           |
|  \\    /   O peration     | Version:  5.x                                   |
|   \\  /    A nd           | Web:      www.OpenFOAM.org                      |
|    \\/     M anipulation  |                                                 |
\*---------------------------------------------------------------------------*/
FoamFile
{
    version     2.0;
    format      ascii;
    class       volScalarField;
    location    "1.3";
    object      gradTy;
}
// * * * * * * * * * * * * * * * * * * * * * * * * * * * * * * * * * * * * * //

dimensions      [0 -1 0 1 0 0 0];

internalField   nonuniform List<scalar> 
2048
(
-23.9514
-23.8932
-23.7778
-23.6068
-23.3832
-23.1107
-22.7947
-22.4411
-22.0573
-21.6512
-21.2307
-20.804
-20.3787
-19.9615
-19.5582
-19.1734
-18.8105
-18.4719
-18.1591
-17.8723
-17.6116
-17.3759
-17.1642
-16.975
-16.8065
-16.6571
-16.525
-16.4086
-16.3061
-16.2161
-16.1372
-16.0681
-16.0076
-15.9547
-15.9085
-15.8683
-15.8332
-15.8026
-15.7761
-15.753
-15.733
-15.7156
-15.7006
-15.6877
-15.6764
-15.6667
-15.6583
-15.6511
-15.6447
-15.6393
-15.6345
-15.6303
-15.6266
-15.6234
-15.6205
-15.618
-15.6158
-15.6139
-15.6123
-15.6109
-15.6098
-15.6089
-15.6084
-15.6081
-23.9977
-23.9388
-23.8219
-23.6487
-23.4218
-23.1452
-22.8241
-22.4647
-22.0745
-21.6617
-21.2346
-20.8018
-20.3709
-19.949
-19.5419
-19.1542
-18.7894
-18.4497
-18.1363
-17.8498
-17.5896
-17.3548
-17.1443
-16.9563
-16.7893
-16.6412
-16.5105
-16.3953
-16.2941
-16.2052
-16.1273
-16.0591
-15.9994
-15.9473
-15.9017
-15.862
-15.8274
-15.7973
-15.7712
-15.7484
-15.7287
-15.7117
-15.6969
-15.6841
-15.6731
-15.6636
-15.6553
-15.6482
-15.642
-15.6366
-15.6319
-15.6278
-15.6241
-15.621
-15.6181
-15.6157
-15.6135
-15.6116
-15.6099
-15.6085
-15.6074
-15.6066
-15.606
-15.6057
-24.0859
-24.0257
-23.9061
-23.7285
-23.4956
-23.2111
-22.8803
-22.5097
-22.1071
-21.6815
-21.2418
-20.7971
-20.3556
-19.9247
-19.5104
-19.1173
-18.7488
-18.407
-18.0929
-17.8067
-17.5477
-17.3148
-17.1065
-16.9211
-16.7566
-16.6113
-16.4831
-16.3704
-16.2714
-16.1846
-16.1086
-16.0422
-15.984
-15.9332
-15.8889
-15.8503
-15.8166
-15.7874
-15.7619
-15.7399
-15.7207
-15.7042
-15.6899
-15.6775
-15.6668
-15.6576
-15.6496
-15.6427
-15.6367
-15.6315
-15.627
-15.623
-15.6195
-15.6164
-15.6136
-15.6112
-15.609
-15.6071
-15.6055
-15.6041
-15.603
-15.6021
-15.6016
-15.6013
-24.2112
-24.1493
-24.026
-23.8425
-23.6012
-23.3055
-22.9608
-22.5739
-22.1535
-21.7093
-21.2512
-20.7893
-20.3326
-19.8889
-19.4644
-19.0638
-18.6903
-18.3457
-18.0308
-17.7452
-17.4881
-17.258
-17.0531
-16.8713
-16.7106
-16.5691
-16.4446
-16.3353
-16.2396
-16.1558
-16.0825
-16.0185
-15.9625
-15.9136
-15.871
-15.8339
-15.8015
-15.7734
-15.749
-15.7278
-15.7095
-15.6937
-15.68
-15.6682
-15.658
-15.6492
-15.6416
-15.6351
-15.6294
-15.6244
-15.6201
-15.6163
-15.6129
-15.6099
-15.6073
-15.6049
-15.6028
-15.6009
-15.5993
-15.5979
-15.5968
-15.5959
-15.5953
-15.595
-24.3697
-24.3057
-24.1781
-23.9876
-23.7359
-23.4262
-23.0637
-22.6559
-22.2123
-21.7437
-21.2619
-20.7778
-20.3016
-19.8416
-19.4043
-18.9944
-18.6149
-18.2672
-17.9515
-17.6672
-17.4128
-17.1864
-16.9859
-16.8089
-16.6532
-16.5164
-16.3966
-16.2918
-16.2001
-16.1201
-16.0502
-15.9891
-15.9358
-15.8893
-15.8488
-15.8135
-15.7828
-15.7561
-15.733
-15.7129
-15.6956
-15.6806
-15.6677
-15.6566
-15.647
-15.6388
-15.6317
-15.6255
-15.6202
-15.6155
-15.6115
-15.6079
-15.6047
-15.6019
-15.5993
-15.597
-15.595
-15.5931
-15.5915
-15.5901
-15.589
-15.5881
-15.5874
-15.5872
-24.5577
-24.4917
-24.3595
-24.1612
-23.8977
-23.5715
-23.1877
-22.7544
-22.2821
-21.7837
-21.2725
-20.7614
-20.2616
-19.7823
-19.3301
-18.9096
-18.5234
-18.1725
-17.8565
-17.5741
-17.3233
-17.1018
-16.9068
-16.7357
-16.5858
-16.4549
-16.3407
-16.2411
-16.1543
-16.0786
-16.0127
-15.9551
-15.905
-15.8612
-15.8231
-15.7899
-15.761
-15.736
-15.7143
-15.6956
-15.6794
-15.6655
-15.6535
-15.6431
-15.6343
-15.6267
-15.6201
-15.6144
-15.6095
-15.6052
-15.6015
-15.5981
-15.5952
-15.5925
-15.5901
-15.5879
-15.5859
-15.5841
-15.5824
-15.581
-15.5798
-15.5789
-15.5783
-15.5779
-24.772
-24.704
-24.5675
-24.3612
-24.085
-23.7404
-23.332
-22.8685
-22.3622
-21.828
-21.282
-20.7391
-20.2119
-19.7104
-19.2415
-18.8094
-18.4163
-18.0624
-17.7467
-17.4673
-17.2213
-17.0057
-16.8173
-16.6531
-16.5103
-16.3861
-16.2782
-16.1846
-16.1032
-16.0325
-15.971
-15.9174
-15.8707
-15.83
-15.7945
-15.7637
-15.7369
-15.7137
-15.6936
-15.6763
-15.6613
-15.6485
-15.6375
-15.6281
-15.62
-15.6131
-15.6072
-15.602
-15.5976
-15.5937
-15.5903
-15.5872
-15.5845
-15.582
-15.5797
-15.5776
-15.5757
-15.5739
-15.5722
-15.5708
-15.5696
-15.5686
-15.5679
-15.5676
-25.0094
-24.94
-24.7996
-24.5859
-24.2967
-23.9322
-23.4961
-22.9978
-22.4516
-21.8756
-21.289
-20.7094
-20.1512
-19.6252
-19.1381
-18.694
-18.294
-17.9378
-17.6234
-17.3479
-17.1079
-16.8995
-16.719
-16.5628
-16.4278
-16.3112
-16.2104
-16.1234
-16.0481
-15.9828
-15.9261
-15.8768
-15.8338
-15.7963
-15.7637
-15.7354
-15.7108
-15.6895
-15.6712
-15.6554
-15.6418
-15.6302
-15.6203
-15.6118
-15.6046
-15.5984
-15.5931
-15.5885
-15.5846
-15.5811
-15.5781
-15.5754
-15.5729
-15.5706
-15.5685
-15.5665
-15.5646
-15.5628
-15.5611
-15.5596
-15.5583
-15.5573
-15.5566
-15.5562
-25.2668
-25.1966
-25.0537
-24.8337
-24.5322
-24.1468
-23.6801
-23.1421
-22.5497
-21.9253
-21.2921
-20.671
-20.0785
-19.5258
-19.0197
-18.5633
-18.1569
-17.7992
-17.4873
-17.2172
-16.9846
-16.7847
-16.6131
-16.466
-16.3398
-16.2315
-16.1385
-16.0586
-15.9898
-15.9304
-15.8789
-15.834
-15.795
-15.7609
-15.7313
-15.7055
-15.6832
-15.664
-15.6474
-15.6332
-15.6211
-15.6108
-15.602
-15.5945
-15.5882
-15.5828
-15.5782
-15.5742
-15.5708
-15.5678
-15.5651
-15.5627
-15.5605
-15.5585
-15.5565
-15.5546
-15.5528
-15.551
-15.5493
-15.5477
-15.5463
-15.5452
-15.5445
-15.5441
-25.5411
-25.4712
-25.3275
-25.1034
-24.7908
-24.3844
-23.8846
-23.3016
-22.6561
-21.9759
-21.2897
-20.6223
-19.9922
-19.4112
-18.8856
-18.4173
-18.0055
-17.6475
-17.3394
-17.0762
-16.8525
-16.6625
-16.5012
-16.3641
-16.2474
-16.1481
-16.0635
-15.9912
-15.9293
-15.8761
-15.8299
-15.7898
-15.7548
-15.7242
-15.6976
-15.6745
-15.6546
-15.6375
-15.6228
-15.6102
-15.5995
-15.5905
-15.5829
-15.5765
-15.5711
-15.5665
-15.5626
-15.5593
-15.5564
-15.5538
-15.5516
-15.5495
-15.5476
-15.5458
-15.544
-15.5422
-15.5404
-15.5386
-15.5368
-15.5352
-15.5337
-15.5325
-15.5317
-15.5313
-25.829
-25.7608
-25.6189
-25.3936
-25.0726
-24.6458
-24.1104
-23.4768
-22.7703
-22.0261
-21.28
-20.5614
-19.891
-19.2808
-18.7357
-18.2563
-17.8401
-17.4832
-17.1806
-16.9261
-16.7129
-16.5343
-16.3843
-16.2581
-16.1518
-16.062
-15.9862
-15.922
-15.8674
-15.8205
-15.78
-15.7447
-15.7137
-15.6867
-15.6632
-15.6428
-15.6253
-15.6102
-15.5974
-15.5865
-15.5773
-15.5697
-15.5633
-15.5579
-15.5535
-15.5497
-15.5466
-15.5438
-15.5415
-15.5394
-15.5376
-15.5359
-15.5342
-15.5326
-15.531
-15.5293
-15.5275
-15.5257
-15.5239
-15.5221
-15.5206
-15.5192
-15.5183
-15.5179
-26.1272
-26.0625
-25.9256
-25.7032
-25.3775
-24.9321
-24.3592
-23.6687
-22.8919
-22.0745
-21.2611
-20.4865
-19.7735
-19.1335
-18.5696
-18.0803
-17.6613
-17.3071
-17.0118
-16.7679
-16.567
-16.4012
-16.2637
-16.1494
-16.0539
-15.9743
-15.9076
-15.8518
-15.8047
-15.7645
-15.7297
-15.6992
-15.6723
-15.6488
-15.6284
-15.6107
-15.5955
-15.5826
-15.5716
-15.5624
-15.5548
-15.5484
-15.5432
-15.539
-15.5355
-15.5326
-15.5302
-15.5281
-15.5263
-15.5247
-15.5233
-15.5219
-15.5206
-15.5192
-15.5177
-15.5162
-15.5144
-15.5126
-15.5107
-15.5088
-15.507
-15.5056
-15.5045
-15.504
-26.4323
-26.3731
-26.2452
-26.031
-25.7059
-25.245
-24.6331
-23.8784
-23.0203
-22.1191
-21.2307
-20.3955
-19.6381
-18.9687
-18.3872
-17.8897
-17.4697
-17.12
-16.8339
-16.6026
-16.416
-16.2645
-16.1406
-16.0388
-15.9548
-15.8855
-15.8284
-15.7812
-15.7418
-15.7085
-15.6795
-15.6538
-15.631
-15.6109
-15.5934
-15.5784
-15.5656
-15.5548
-15.5457
-15.5382
-15.532
-15.527
-15.523
-15.5199
-15.5174
-15.5153
-15.5136
-15.5122
-15.5109
-15.5098
-15.5088
-15.5078
-15.5068
-15.5056
-15.5043
-15.5029
-15.5012
-15.4993
-15.4973
-15.4952
-15.4932
-15.4916
-15.4905
-15.4899
-26.7408
-26.6894
-26.5752
-26.3756
-26.058
-25.5866
-24.9351
-24.108
-23.1551
-22.158
-21.1865
-20.2861
-19.4835
-18.7858
-18.1886
-17.6851
-17.266
-16.9226
-16.6476
-16.4314
-16.2611
-16.1253
-16.0159
-15.9273
-15.8552
-15.7966
-15.7492
-15.7107
-15.6793
-15.653
-15.6298
-15.6089
-15.59
-15.5732
-15.5586
-15.5462
-15.5357
-15.527
-15.5198
-15.5139
-15.5091
-15.5055
-15.5028
-15.5007
-15.4992
-15.498
-15.497
-15.4962
-15.4955
-15.4948
-15.4942
-15.4936
-15.4929
-15.492
-15.4909
-15.4895
-15.4878
-15.4859
-15.4837
-15.4814
-15.4792
-15.4774
-15.4761
-15.4755
-27.0489
-27.0081
-26.9127
-26.7354
-26.4343
-25.9595
-25.269
-24.3597
-23.2953
-22.1883
-21.1255
-20.156
-19.3083
-18.5846
-17.9741
-17.4672
-17.0512
-16.7155
-16.4538
-16.2552
-16.1034
-15.9847
-15.8908
-15.8159
-15.7558
-15.7081
-15.6705
-15.641
-15.6177
-15.5985
-15.5812
-15.5647
-15.5495
-15.536
-15.5242
-15.5143
-15.5061
-15.4994
-15.494
-15.4897
-15.4864
-15.4841
-15.4826
-15.4817
-15.4811
-15.4807
-15.4804
-15.4802
-15.48
-15.4799
-15.4797
-15.4794
-15.479
-15.4783
-15.4774
-15.4761
-15.4745
-15.4725
-15.4702
-15.4676
-15.4652
-15.463
-15.4616
-15.4609
-27.3533
-27.3256
-27.2549
-27.1087
-26.8351
-26.3668
-25.6396
-24.6367
-23.4392
-22.2067
-21.045
-20.0027
-19.1111
-18.3651
-17.7441
-17.2368
-16.8265
-16.4996
-16.2532
-16.0751
-15.9444
-15.8439
-15.7661
-15.7053
-15.6572
-15.6204
-15.5929
-15.5722
-15.5571
-15.5453
-15.5339
-15.5217
-15.5099
-15.4994
-15.4902
-15.4828
-15.4769
-15.4721
-15.4685
-15.4657
-15.4638
-15.4628
-15.4626
-15.4628
-15.4631
-15.4636
-15.464
-15.4644
-15.4647
-15.465
-15.4652
-15.4653
-15.4652
-15.4648
-15.464
-15.4629
-15.4613
-15.4592
-15.4567
-15.4539
-15.451
-15.4486
-15.447
-15.4461
-27.6502
-27.6386
-27.5983
-27.4931
-27.2603
-26.8121
-26.0533
-24.9434
-23.5843
-22.2089
-20.942
-19.8232
-18.8908
-18.1278
-17.4993
-16.9951
-16.5931
-16.2753
-16.046
-15.8922
-15.7852
-15.7038
-15.6427
-15.5964
-15.56
-15.5341
-15.5166
-15.5047
-15.4981
-15.4939
-15.4883
-15.4799
-15.4713
-15.4635
-15.4568
-15.4518
-15.4481
-15.4453
-15.4434
-15.4421
-15.4415
-15.4417
-15.4428
-15.4442
-15.4454
-15.4467
-15.4477
-15.4487
-15.4495
-15.4502
-15.4508
-15.4513
-15.4515
-15.4514
-15.4508
-15.4497
-15.4482
-15.4461
-15.4434
-15.4402
-15.4368
-15.434
-15.4322
-15.4313
-27.9366
-27.9434
-27.9397
-27.8858
-27.7095
-27.2989
-26.518
-25.2855
-23.7262
-22.1896
-20.8142
-19.6147
-18.6463
-17.8741
-17.2402
-16.7435
-16.3528
-16.0428
-15.8326
-15.7075
-15.6275
-15.5654
-15.5213
-15.4896
-15.4645
-15.4495
-15.442
-15.4386
-15.4406
-15.4445
-15.4447
-15.4395
-15.4336
-15.4286
-15.4241
-15.4213
-15.4199
-15.4189
-15.4187
-15.4189
-15.4195
-15.421
-15.4233
-15.4258
-15.428
-15.43
-15.4317
-15.4332
-15.4345
-15.4357
-15.4366
-15.4375
-15.438
-15.4381
-15.4377
-15.4368
-15.4353
-15.4331
-15.4302
-15.4266
-15.4227
-15.4194
-15.4174
-15.4164
-28.2092
-28.2369
-28.2752
-28.2835
-28.1812
-27.8312
-27.0435
-25.6713
-23.8579
-22.142
-20.66
-19.3733
-18.3769
-17.606
-16.9674
-16.4833
-16.108
-15.8021
-15.6128
-15.5223
-15.4729
-15.4294
-15.4025
-15.386
-15.3709
-15.3666
-15.3695
-15.374
-15.3847
-15.3975
-15.4035
-15.4005
-15.397
-15.3946
-15.3919
-15.3915
-15.3924
-15.3931
-15.3945
-15.3962
-15.3977
-15.4004
-15.4042
-15.4079
-15.4109
-15.4136
-15.416
-15.4179
-15.4197
-15.4212
-15.4226
-15.4238
-15.4247
-15.4251
-15.4248
-15.424
-15.4226
-15.4204
-15.4173
-15.4132
-15.4085
-15.4047
-15.4025
-15.4015
-28.4654
-28.5157
-28.6011
-28.682
-28.6733
-28.4124
-27.6421
-26.1128
-23.968
-22.0579
-20.4801
-19.0945
-18.0819
-17.3275
-16.6806
-16.2162
-15.8619
-15.5524
-15.3859
-15.3379
-15.3236
-15.2961
-15.2867
-15.2861
-15.2792
-15.2858
-15.2995
-15.3107
-15.3306
-15.3532
-15.3652
-15.3628
-15.3614
-15.3616
-15.3603
-15.3624
-15.3657
-15.3677
-15.3709
-15.3741
-15.3763
-15.3801
-15.3854
-15.3904
-15.3941
-15.3975
-15.4005
-15.4028
-15.405
-15.4071
-15.4087
-15.4103
-15.4116
-15.4122
-15.412
-15.4114
-15.4101
-15.4079
-15.4046
-15.4
-15.3943
-15.3899
-15.3876
-15.3866
-28.7028
-28.7771
-28.9134
-29.0767
-29.182
-29.0449
-28.3287
-26.6272
-24.0382
-21.9273
-20.2787
-18.7715
-17.7604
-17.0445
-16.3786
-15.9438
-15.6194
-15.2916
-15.1507
-15.1562
-15.1823
-15.1655
-15.1742
-15.1911
-15.1891
-15.207
-15.2324
-15.2484
-15.2779
-15.312
-15.3302
-15.3263
-15.3266
-15.3298
-15.3292
-15.3338
-15.3399
-15.3429
-15.3479
-15.3526
-15.3551
-15.3601
-15.3671
-15.3734
-15.3777
-15.3818
-15.3854
-15.388
-15.3907
-15.3931
-15.395
-15.3969
-15.3987
-15.3996
-15.3994
-15.399
-15.3979
-15.3956
-15.3923
-15.387
-15.3801
-15.3751
-15.3727
-15.3718
-28.9196
-29.0185
-29.2085
-29.4623
-29.702
-29.7297
-29.1209
-27.2409
-24.04
-21.7389
-20.0661
-18.3942
-17.4121
-16.7664
-16.0577
-15.6676
-15.3875
-15.0162
-14.9052
-14.9791
-15.0526
-15.0368
-15.0652
-15.1024
-15.0997
-15.1303
-15.1691
-15.1867
-15.2266
-15.2745
-15.2994
-15.2903
-15.2926
-15.2996
-15.2984
-15.3059
-15.3153
-15.3185
-15.3255
-15.332
-15.3341
-15.3403
-15.3493
-15.357
-15.3616
-15.3664
-15.3707
-15.3734
-15.3765
-15.3794
-15.3815
-15.3838
-15.3861
-15.3873
-15.3871
-15.3869
-15.386
-15.3836
-15.3804
-15.3745
-15.3658
-15.3601
-15.3578
-15.3572
-29.1144
-29.2379
-29.4826
-29.833
-30.2262
-30.465
-30.0383
-27.9934
-23.9292
-21.4795
-19.862
-17.9466
-17.0364
-16.5078
-15.7105
-15.3894
-15.1766
-14.7199
-14.6468
-14.8094
-14.9395
-14.9078
-14.9595
-15.0223
-15.0098
-15.0555
-15.111
-15.1245
-15.1761
-15.2411
-15.2739
-15.2542
-15.2591
-15.2714
-15.2674
-15.2787
-15.2922
-15.2944
-15.3038
-15.3126
-15.3131
-15.3206
-15.332
-15.3414
-15.3459
-15.3514
-15.3565
-15.3591
-15.3627
-15.3661
-15.3682
-15.371
-15.3739
-15.3754
-15.3749
-15.375
-15.3745
-15.3719
-15.3689
-15.3626
-15.3514
-15.3451
-15.3431
-15.3428
-29.2865
-29.4337
-29.7327
-30.1826
-30.7456
-31.2451
-31.102
-28.9444
-23.6387
-21.1357
-19.7001
-17.4031
-16.6329
-16.2907
-15.3237
-15.1106
-15.0024
-14.3923
-14.3724
-14.6506
-14.8495
-14.7747
-14.8569
-14.9539
-14.9169
-14.9826
-15.0599
-15.0604
-15.1261
-15.2126
-15.2552
-15.2166
-15.226
-15.246
-15.2358
-15.2521
-15.2711
-15.2702
-15.2828
-15.2946
-15.292
-15.3011
-15.3155
-15.3267
-15.3304
-15.3369
-15.3429
-15.3451
-15.3493
-15.3533
-15.3551
-15.3584
-15.3621
-15.364
-15.3629
-15.3634
-15.3635
-15.3605
-15.3581
-15.3515
-15.3367
-15.33
-15.3285
-15.3287
-29.4356
-29.605
-29.9559
-30.5052
-31.2493
-32.0592
-32.3314
-30.1838
-23.0677
-20.6945
-19.6346
-16.7231
-16.2018
-16.1481
-14.8747
-14.8327
-14.888
-14.0169
-14.0783
-14.5067
-14.7919
-14.6309
-14.757
-14.9024
-14.8171
-14.9114
-15.0188
-14.992
-15.0759
-15.1897
-15.2456
-15.1755
-15.193
-15.2246
-15.2027
-15.2261
-15.2528
-15.2455
-15.2626
-15.2787
-15.2704
-15.2817
-15.2998
-15.3132
-15.3152
-15.3228
-15.33
-15.3312
-15.3362
-15.3411
-15.3422
-15.3462
-15.3507
-15.3532
-15.351
-15.3522
-15.3531
-15.3493
-15.348
-15.3415
-15.3216
-15.3148
-15.3142
-15.3151
-29.5617
-29.7513
-30.1503
-30.795
-31.7249
-32.8901
-33.7405
-31.845
-22.0678
-20.1459
-19.7485
-15.8438
-15.7442
-16.1279
-14.3273
-14.5573
-14.867
-13.5685
-13.7615
-14.3826
-14.7794
-14.4656
-14.6594
-14.875
-14.7043
-14.8419
-14.9922
-14.9159
-15.0248
-15.1732
-15.2484
-15.1276
-15.1598
-15.2092
-15.1664
-15.2008
-15.2384
-15.2193
-15.2433
-15.2657
-15.2477
-15.2623
-15.2851
-15.3013
-15.2998
-15.3092
-15.3182
-15.3174
-15.3235
-15.3295
-15.3294
-15.3342
-15.3399
-15.3431
-15.3391
-15.3414
-15.3434
-15.3381
-15.3386
-15.3332
-15.3056
-15.2995
-15.3003
-15.3018
-29.6656
-29.8728
-30.3145
-31.0471
-32.1593
-33.7132
-35.3305
-34.124
-20.4239
-19.4867
-20.1636
-14.6694
-15.2637
-16.2995
-13.6259
-14.2867
-14.9874
-13.0087
-13.4207
-14.2835
-14.8294
-14.2631
-14.564
-14.8824
-14.5693
-14.7741
-14.9864
-14.8267
-14.9722
-15.1637
-15.2681
-15.0682
-15.1265
-15.2022
-15.1248
-15.1761
-15.2294
-15.1903
-15.2247
-15.2565
-15.2229
-15.2428
-15.2714
-15.2912
-15.2841
-15.296
-15.3075
-15.3034
-15.3113
-15.3188
-15.3166
-15.3225
-15.3296
-15.3339
-15.3271
-15.3308
-15.3345
-15.3267
-15.3299
-15.3269
-15.2883
-15.284
-15.2867
-15.289
-29.7481
-29.9701
-30.448
-31.2577
-32.5394
-34.4961
-37.0796
-37.3044
-17.8297
-18.7257
-21.054
-13.0586
-14.7682
-16.7603
-12.6881
-14.0244
-15.3168
-12.2817
-13.0579
-14.2139
-14.9663
-13.9997
-14.471
-14.9399
-14.3985
-14.7084
-15.0104
-14.7167
-14.918
-15.1614
-15.311
-14.9904
-15.0929
-15.2076
-15.0744
-15.152
-15.228
-15.1564
-15.2069
-15.2528
-15.1946
-15.2232
-15.2588
-15.2835
-15.2672
-15.2832
-15.2983
-15.2889
-15.2993
-15.3091
-15.3034
-15.3109
-15.3198
-15.3258
-15.3144
-15.3205
-15.3267
-15.3148
-15.3219
-15.3235
-15.2688
-15.2684
-15.2736
-15.2766
-29.8105
-30.0443
-30.5511
-31.4242
-32.8533
-35.1994
-38.9283
-41.7892
-13.8565
-17.8913
-22.6611
-10.8071
-14.2729
-17.6449
-11.3949
-13.7764
-15.9486
-11.307
-12.6825
-14.1768
-15.2228
-13.6423
-14.382
-15.0685
-14.1725
-14.6458
-15.0768
-14.5749
-14.8628
-15.1659
-15.3862
-14.8848
-15.0596
-15.2306
-15.0105
-15.1289
-15.2371
-15.1148
-15.1899
-15.2565
-15.1609
-15.2037
-15.2472
-15.2788
-15.2484
-15.2707
-15.2909
-15.2731
-15.2876
-15.3007
-15.2896
-15.2994
-15.3102
-15.3189
-15.3008
-15.3103
-15.3203
-15.3016
-15.3143
-15.3241
-15.2459
-15.2527
-15.2609
-15.2646
-29.8544
-30.0968
-30.6249
-31.546
-33.0918
-35.7797
-40.7581
-48.1415
-7.91462
-17.042
-25.3114
-7.62734
-13.8046
-19.1354
-9.57971
-13.5529
-17.0091
-9.97148
-12.3145
-14.1713
-15.6441
-13.1449
-14.3001
-15.2973
-13.8644
-14.5885
-15.2024
-14.3862
-14.8086
-15.1755
-15.5063
-14.7382
-15.0277
-15.2785
-14.9265
-15.1071
-15.261
-15.0614
-15.1739
-15.2707
-15.1192
-15.1846
-15.2367
-15.2782
-15.2266
-15.2586
-15.2862
-15.2557
-15.2762
-15.294
-15.2747
-15.2881
-15.301
-15.3139
-15.2856
-15.3003
-15.3158
-15.2866
-15.3069
-15.3303
-15.218
-15.2371
-15.2489
-15.2532
-29.8813
-30.1294
-30.6713
-31.6239
-33.2494
-36.1942
-42.3653
-57.1347
0.792981
-16.2798
-29.4367
-3.12412
-13.4078
-21.4733
-7.01477
-13.3706
-18.6667
-8.11933
-11.9915
-14.1901
-16.2905
-12.4452
-14.2313
-15.6652
-13.4375
-14.5404
-15.4103
-14.1298
-14.76
-15.187
-15.6885
-14.5332
-14.9995
-15.3613
-14.8135
-15.0879
-15.3056
-14.9913
-15.1596
-15.2995
-15.066
-15.1672
-15.2273
-15.2834
-15.2007
-15.2473
-15.2853
-15.2359
-15.2655
-15.2898
-15.2584
-15.2774
-15.2921
-15.3117
-15.2684
-15.2906
-15.3143
-15.2693
-15.2998
-15.3445
-15.1834
-15.2227
-15.2378
-15.2427
-29.8931
-30.1438
-30.6925
-31.6604
-33.3258
-36.4093
-43.4258
-69.8107
13.3256
-15.7675
-35.5951
3.23406
-13.1515
-24.9723
-3.39496
-13.2551
-21.1404
-5.53962
-11.7753
-14.2141
-17.2421
-11.4603
-14.185
-16.2222
-12.8426
-14.5072
-15.7296
-13.7774
-14.7247
-15.194
-15.9556
-14.2462
-14.9782
-15.4915
-14.6592
-15.0726
-15.3779
-14.8971
-15.1475
-15.3479
-14.9962
-15.1527
-15.2185
-15.2961
-15.1686
-15.2369
-15.2892
-15.2125
-15.2554
-15.2889
-15.2399
-15.2672
-15.2834
-15.313
-15.2482
-15.2812
-15.3166
-15.2484
-15.292
-15.3696
-15.139
-15.21
-15.2277
-15.233
)
;

boundaryField
{
    left
    {
        type            calculated;
        value           nonuniform List<scalar> 
32
(
-23.9514
-23.9977
-24.0859
-24.2112
-24.3697
-24.5577
-24.772
-25.0094
-25.2668
-25.5411
-25.829
-26.1272
-26.4323
-26.7408
-27.0489
-27.3533
-27.6502
-27.9366
-28.2092
-28.4654
-28.7028
-28.9196
-29.1144
-29.2865
-29.4356
-29.5617
-29.6656
-29.7481
-29.8105
-29.8544
-29.8813
-29.8931
)
;
    }
    right
    {
        type            calculated;
        value           nonuniform List<scalar> 
32
(
-15.6081
-15.6057
-15.6013
-15.595
-15.5872
-15.5779
-15.5676
-15.5562
-15.5441
-15.5313
-15.5179
-15.504
-15.4899
-15.4755
-15.4609
-15.4461
-15.4313
-15.4164
-15.4015
-15.3866
-15.3718
-15.3572
-15.3428
-15.3287
-15.3151
-15.3018
-15.289
-15.2766
-15.2646
-15.2532
-15.2427
-15.233
)
;
    }
    interface
    {
        type            calculated;
        value           nonuniform List<scalar> 
64
(
-29.8954
-30.1467
-30.6971
-31.6687
-33.3439
-36.4636
-43.7701
-77.2186
20.6988
-15.5985
-39.2609
6.95279
-13.069
-27.0561
-1.27784
-13.218
-22.6121
-4.03762
-11.7033
-14.2241
-17.8055
-10.8847
-14.1689
-16.5551
-12.4959
-14.4952
-15.9212
-13.5731
-14.7116
-15.1952
-16.1135
-14.0787
-14.9697
-15.57
-14.57
-15.0661
-15.422
-14.8429
-15.1419
-15.3776
-14.9565
-15.1464
-15.214
-15.3044
-15.1506
-15.2319
-15.2924
-15.1996
-15.2505
-15.2893
-15.2299
-15.2623
-15.2788
-15.3145
-15.2372
-15.2765
-15.3188
-15.2368
-15.2878
-15.3851
-15.1138
-15.2042
-15.2227
-15.2282
)
;
    }
    bottom
    {
        type            calculated;
        value           nonuniform List<scalar> 
64
(
-23.9393
-23.8814
-23.7663
-23.5959
-23.3731
-23.1018
-22.787
-22.435
-22.0529
-21.6484
-21.2296
-20.8046
-20.3807
-19.9647
-19.5624
-19.1783
-18.816
-18.4777
-18.165
-17.8782
-17.6173
-17.3814
-17.1694
-16.9798
-16.811
-16.6613
-16.5288
-16.412
-16.3093
-16.219
-16.1398
-16.0704
-16.0097
-15.9566
-15.9103
-15.8699
-15.8347
-15.804
-15.7773
-15.7542
-15.7341
-15.7167
-15.7016
-15.6886
-15.6773
-15.6676
-15.6591
-15.6518
-15.6455
-15.64
-15.6351
-15.6309
-15.6273
-15.624
-15.6212
-15.6186
-15.6164
-15.6145
-15.6129
-15.6115
-15.6104
-15.6095
-15.609
-15.6087
)
;
    }
    defaultFaces
    {
        type            empty;
    }
}


// ************************************************************************* //
