/*--------------------------------*- C++ -*----------------------------------*\
| =========                 |                                                 |
| \\      /  F ield         | OpenFOAM: The Open Source CFD Toolbox           |
|  \\    /   O peration     | Version:  5.x                                   |
|   \\  /    A nd           | Web:      www.OpenFOAM.org                      |
|    \\/     M anipulation  |                                                 |
\*---------------------------------------------------------------------------*/
FoamFile
{
    version     2.0;
    format      ascii;
    class       volScalarField;
    location    "1.3";
    object      T;
}
// * * * * * * * * * * * * * * * * * * * * * * * * * * * * * * * * * * * * * //

dimensions      [0 0 0 1 0 0 0];

internalField   nonuniform List<scalar> 
2048
(
9.82801
9.82843
9.82926
9.83048
9.83208
9.83403
9.83629
9.83882
9.84157
9.84447
9.84748
9.85053
9.85358
9.85657
9.85946
9.86222
9.86482
9.86725
9.8695
9.87156
9.87343
9.87513
9.87665
9.87801
9.87923
9.8803
9.88125
9.88209
9.88283
9.88348
9.88405
9.88455
9.88498
9.88536
9.8857
9.88599
9.88624
9.88646
9.88665
9.88682
9.88696
9.88709
9.8872
9.88729
9.88737
9.88744
9.8875
9.88755
9.8876
9.88764
9.88767
9.8877
9.88773
9.88775
9.88777
9.88779
9.88781
9.88782
9.88783
9.88784
9.88785
9.88786
9.88786
9.88786
9.49122
9.49246
9.49491
9.49855
9.50331
9.5091
9.51582
9.52334
9.5315
9.54014
9.54908
9.55816
9.5672
9.57607
9.58464
9.59282
9.60053
9.60772
9.61437
9.62046
9.62599
9.631
9.63549
9.63951
9.64308
9.64625
9.64906
9.65153
9.6537
9.65561
9.65729
9.65875
9.66004
9.66116
9.66214
9.66299
9.66374
9.66438
9.66495
9.66544
9.66586
9.66623
9.66655
9.66682
9.66706
9.66727
9.66744
9.6676
9.66773
9.66785
9.66795
9.66804
9.66812
9.66819
9.66825
9.6683
9.66835
9.66839
9.66842
9.66845
9.66847
9.66849
9.6685
9.66851
9.16824
9.17028
9.17432
9.1803
9.18814
9.19769
9.20878
9.22119
9.23466
9.24891
9.26366
9.27861
9.2935
9.30808
9.32217
9.33558
9.34822
9.35999
9.37085
9.38079
9.38981
9.39796
9.40528
9.41181
9.41761
9.42276
9.42731
9.43131
9.43483
9.43793
9.44064
9.44301
9.44509
9.44691
9.44849
9.44987
9.45108
9.45213
9.45304
9.45383
9.45451
9.45511
9.45562
9.45607
9.45645
9.45678
9.45707
9.45732
9.45754
9.45772
9.45789
9.45803
9.45816
9.45827
9.45837
9.45845
9.45853
9.4586
9.45865
9.4587
9.45874
9.45877
9.45879
9.4588
8.858
8.86082
8.86642
8.87472
8.88559
8.89886
8.91428
8.93154
8.95028
8.97011
8.9906
9.01136
9.03201
9.05221
9.07167
9.09018
9.10758
9.12376
9.13866
9.15228
9.16462
9.17575
9.18572
9.19461
9.20251
9.20951
9.21568
9.22112
9.22589
9.23008
9.23376
9.23697
9.23979
9.24224
9.24439
9.24626
9.24789
9.24931
9.25054
9.25161
9.25253
9.25334
9.25403
9.25463
9.25515
9.2556
9.25599
9.25632
9.25662
9.25687
9.25709
9.25728
9.25745
9.2576
9.25774
9.25785
9.25796
9.25805
9.25813
9.25819
9.25825
9.25829
9.25831
9.25833
8.55957
8.56316
8.5703
8.5809
8.5948
8.61178
8.63153
8.65366
8.67769
8.70311
8.72937
8.75592
8.78229
8.80803
8.83278
8.85627
8.87829
8.89872
8.9175
8.93462
8.95011
8.96405
8.97651
8.98762
8.99746
9.00617
9.01385
9.0206
9.02653
9.03173
9.03629
9.04027
9.04376
9.0468
9.04946
9.05178
9.05379
9.05555
9.05707
9.0584
9.05954
9.06054
9.0614
9.06214
9.06278
9.06333
9.06381
9.06423
9.06458
9.0649
9.06517
9.06541
9.06562
9.06581
9.06597
9.06612
9.06625
9.06636
9.06646
9.06654
9.06661
9.06666
9.06669
9.06671
8.27214
8.2765
8.28516
8.29804
8.31497
8.33568
8.35981
8.38687
8.41627
8.44735
8.47942
8.51182
8.54391
8.57516
8.60513
8.63349
8.66001
8.68455
8.70704
8.72749
8.74596
8.76253
8.77732
8.79047
8.80212
8.8124
8.82146
8.82941
8.83639
8.84251
8.84787
8.85255
8.85664
8.86022
8.86334
8.86606
8.86843
8.87049
8.87228
8.87383
8.87517
8.87634
8.87734
8.87821
8.87896
8.87961
8.88017
8.88065
8.88107
8.88143
8.88175
8.88203
8.88228
8.8825
8.88269
8.88286
8.88302
8.88315
8.88327
8.88337
8.88345
8.88351
8.88355
8.88357
7.99502
8.00013
8.01031
8.02546
8.04542
8.06989
8.09846
8.13055
8.16543
8.2023
8.2403
8.2786
8.31645
8.3532
8.38835
8.4215
8.4524
8.4809
8.50694
8.53055
8.55181
8.57084
8.58779
8.60283
8.61612
8.62784
8.63815
8.64719
8.65512
8.66206
8.66813
8.67344
8.67808
8.68213
8.68567
8.68875
8.69143
8.69376
8.69579
8.69754
8.69906
8.70037
8.70151
8.70249
8.70333
8.70406
8.70469
8.70523
8.70571
8.70612
8.70648
8.70679
8.70707
8.70732
8.70754
8.70774
8.70791
8.70807
8.7082
8.70832
8.70841
8.70849
8.70853
8.70856
7.72758
7.73343
7.7451
7.76251
7.7855
7.81379
7.84689
7.88413
7.92465
7.96746
8.01154
8.05586
8.09953
8.1418
8.18208
8.21993
8.2551
8.28741
8.31685
8.34344
8.36732
8.38863
8.40757
8.42433
8.43912
8.45213
8.46356
8.47358
8.48235
8.49002
8.49673
8.50259
8.50771
8.51219
8.51609
8.51948
8.52244
8.52501
8.52724
8.52918
8.53085
8.5323
8.53354
8.53462
8.53554
8.53634
8.53703
8.53763
8.53815
8.5386
8.53899
8.53934
8.53965
8.53992
8.54016
8.54038
8.54058
8.54075
8.54091
8.54104
8.54115
8.54123
8.54129
8.54131
7.46929
7.47585
7.48898
7.50863
7.53466
7.5668
7.60453
7.64708
7.69343
7.7424
7.79272
7.8432
7.89278
7.94059
7.98596
8.02845
8.06776
8.10375
8.1364
8.1658
8.19211
8.21552
8.23627
8.2546
8.27073
8.2849
8.29733
8.3082
8.31771
8.32603
8.3333
8.33964
8.34519
8.35003
8.35425
8.35792
8.36112
8.3639
8.36631
8.3684
8.3702
8.37176
8.37311
8.37426
8.37526
8.37612
8.37686
8.3775
8.37806
8.37854
8.37897
8.37934
8.37967
8.37996
8.38023
8.38047
8.38068
8.38088
8.38105
8.38119
8.38132
8.38141
8.38147
8.3815
7.21967
7.22693
7.24147
7.2633
7.29236
7.32838
7.37086
7.4189
7.47132
7.52668
7.58347
7.64027
7.69585
7.74922
7.79967
7.8467
7.89003
7.92954
7.96525
7.99727
8.02583
8.05116
8.07355
8.09327
8.1106
8.12579
8.13909
8.15071
8.16087
8.16974
8.17748
8.18425
8.19016
8.19532
8.19981
8.20373
8.20714
8.21009
8.21266
8.21488
8.21679
8.21845
8.21987
8.2211
8.22215
8.22306
8.22384
8.22452
8.22511
8.22562
8.22607
8.22646
8.22681
8.22713
8.22741
8.22767
8.2279
8.22811
8.2283
8.22846
8.2286
8.2287
8.22877
8.22881
6.97832
6.98623
7.00212
7.02607
7.05811
7.09806
7.14539
7.19914
7.25789
7.31992
7.38343
7.44672
7.50841
7.56738
7.62286
7.67434
7.72157
7.76444
7.80302
7.83748
7.86809
7.89516
7.91901
7.93997
7.95835
7.97443
7.98849
8.00076
8.01146
8.0208
8.02895
8.03607
8.04229
8.04772
8.05245
8.05657
8.06016
8.06327
8.06596
8.06829
8.0703
8.07203
8.07352
8.0748
8.0759
8.07685
8.07766
8.07837
8.07898
8.07951
8.07998
8.08039
8.08076
8.08109
8.08139
8.08167
8.08192
8.08214
8.08235
8.08253
8.08268
8.08279
8.08287
8.08291
6.74488
6.75339
6.77054
6.79652
6.83148
6.87535
6.92765
6.98734
7.05273
7.12176
7.19225
7.26225
7.33014
7.39473
7.4552
7.51104
7.56202
7.60809
7.64936
7.68607
7.71854
7.74716
7.77231
7.79435
7.81364
7.83048
7.84518
7.85798
7.86915
7.87888
7.88737
7.89479
7.90126
7.90692
7.91185
7.91614
7.91987
7.92311
7.92591
7.92833
7.93041
7.93221
7.93375
7.93507
7.93621
7.93718
7.93803
7.93875
7.93938
7.93993
7.94041
7.94084
7.94122
7.94157
7.94188
7.94217
7.94243
7.94268
7.9429
7.94309
7.94326
7.94339
7.94348
7.94352
6.51905
6.5281
6.5464
6.57427
6.61203
6.6598
6.7172
6.78308
6.85547
6.93186
7.00964
7.08655
7.16076
7.23097
7.29636
7.35645
7.41104
7.46014
7.50391
7.54267
7.57681
7.6068
7.63307
7.65604
7.6761
7.69359
7.70881
7.72206
7.7336
7.74364
7.75241
7.76007
7.76676
7.7726
7.77769
7.78213
7.78598
7.78931
7.7922
7.79469
7.79684
7.79868
7.80026
7.80162
7.80278
7.80378
7.80464
7.80538
7.80602
7.80658
7.80708
7.80751
7.8079
7.80826
7.80858
7.80888
7.80917
7.80942
7.80966
7.80987
7.81006
7.8102
7.8103
7.81034
6.30057
6.31008
6.32939
6.35897
6.39939
6.451
6.51359
6.58595
6.66575
6.74991
6.83533
6.91935
6.99997
7.07581
7.14604
7.21025
7.26829
7.32024
7.36632
7.40692
7.44254
7.47371
7.50094
7.5247
7.5454
7.56341
7.57906
7.59267
7.60449
7.61479
7.62377
7.63162
7.63848
7.64447
7.64969
7.65424
7.65818
7.6616
7.66456
7.6671
7.66929
7.67117
7.67278
7.67416
7.67533
7.67635
7.67722
7.67797
7.67862
7.67919
7.67969
7.68013
7.68053
7.68089
7.68123
7.68154
7.68183
7.68211
7.68236
7.6826
7.68279
7.68295
7.68306
7.68311
6.08922
6.0991
6.11923
6.15031
6.19318
6.24853
6.31639
6.39556
6.48325
6.57565
6.66904
6.76041
6.84751
6.92894
7.00392
7.07211
7.13343
7.18805
7.23625
7.27848
7.31537
7.34754
7.37557
7.39997
7.42119
7.43962
7.45561
7.46948
7.48152
7.49199
7.50113
7.50913
7.51613
7.52224
7.52756
7.5322
7.53622
7.53969
7.5427
7.54528
7.54751
7.54941
7.55103
7.55242
7.55361
7.55463
7.5555
7.55626
7.55691
7.55748
7.55798
7.55843
7.55883
7.5592
7.55955
7.55987
7.56018
7.56047
7.56074
7.56099
7.56121
7.56138
7.5615
7.56156
5.8848
5.89494
5.91571
5.94802
5.99308
6.05199
6.12519
6.21151
6.30766
6.40881
6.51055
6.60947
6.70311
6.79007
6.86969
6.94169
7.00612
7.06323
7.11334
7.157
7.19495
7.22795
7.25663
7.28154
7.30316
7.32191
7.33815
7.3522
7.36439
7.37498
7.38423
7.39233
7.39943
7.40563
7.41103
7.41573
7.4198
7.42332
7.42636
7.42897
7.43121
7.43313
7.43476
7.43615
7.43734
7.43836
7.43923
7.43999
7.44064
7.44121
7.44171
7.44216
7.44257
7.44294
7.44329
7.44362
7.44394
7.44425
7.44454
7.44481
7.44504
7.44523
7.44536
7.44543
5.68716
5.69744
5.71862
5.75186
5.79875
5.86099
5.93954
6.03343
6.1387
6.24919
6.35965
6.46632
6.56653
6.65892
6.74303
6.81867
6.88603
6.94546
6.99728
7.04213
7.08094
7.1146
7.14377
7.16907
7.191
7.20997
7.22637
7.24055
7.25281
7.26346
7.27277
7.28094
7.28811
7.29438
7.29984
7.30458
7.30869
7.31224
7.31529
7.31792
7.32017
7.32209
7.32372
7.3251
7.32628
7.3273
7.32817
7.32892
7.32957
7.33013
7.33063
7.33108
7.33148
7.33186
7.33221
7.33255
7.33288
7.3332
7.33351
7.3338
7.33406
7.33427
7.33441
7.33448
5.49614
5.50645
5.52779
5.56159
5.60992
5.67515
5.759
5.86091
5.97614
6.0966
6.21613
6.33077
6.43751
6.53519
6.62365
6.70273
6.77282
6.8344
6.88774
6.93356
6.97302
7.00716
7.0367
7.06227
7.08441
7.10352
7.12
7.13423
7.14651
7.15716
7.16649
7.17471
7.18193
7.18824
7.19374
7.19851
7.20263
7.20619
7.20926
7.21189
7.21414
7.21605
7.21766
7.21904
7.22021
7.22121
7.22207
7.22281
7.22345
7.22401
7.22451
7.22495
7.22535
7.22572
7.22608
7.22643
7.22677
7.22711
7.22743
7.22775
7.22803
7.22826
7.22842
7.22849
5.31164
5.32184
5.34308
5.37704
5.42632
5.49409
5.58313
5.69357
5.81977
5.95089
6.07982
6.20261
6.31583
6.4186
6.51123
6.59355
6.66616
6.72976
6.78441
6.83095
6.87084
6.90533
6.9351
6.96083
6.9831
7.00227
7.01877
7.033
7.04523
7.05583
7.06514
7.07338
7.08063
7.08697
7.09249
7.09727
7.10139
7.10496
7.10802
7.11064
7.11288
7.11478
7.11638
7.11773
7.11888
7.11987
7.12071
7.12144
7.12208
7.12263
7.12311
7.12355
7.12395
7.12432
7.12468
7.12503
7.12538
7.12573
7.12608
7.12642
7.12673
7.12698
7.12715
7.12724
5.13355
5.1435
5.16436
5.19806
5.24772
5.31745
5.41143
5.53096
5.66946
5.81196
5.95052
6.08168
6.20123
6.30882
6.40549
6.4908
6.56572
6.63123
6.687
6.73399
6.77409
6.8088
6.83868
6.86447
6.8868
6.90597
6.92242
6.93659
6.94873
6.95922
6.96847
6.97673
6.98399
6.99033
6.99587
7.00064
7.00475
7.00831
7.01135
7.01396
7.01619
7.01807
7.01964
7.02096
7.0221
7.02306
7.02389
7.02461
7.02523
7.02577
7.02624
7.02667
7.02706
7.02743
7.02779
7.02815
7.02851
7.02887
7.02924
7.02961
7.02995
7.03023
7.03041
7.0305
4.96176
4.97134
4.99153
5.02451
5.07391
5.1449
5.24341
5.37263
5.52514
5.67972
5.82803
5.96784
6.0935
6.20555
6.30614
6.39417
6.47114
6.53854
6.59524
6.64238
6.68245
6.71728
6.74717
6.7729
6.79526
6.81436
6.83069
6.84477
6.85677
6.86709
6.87625
6.88452
6.89179
6.89812
6.90366
6.90842
6.9125
6.91604
6.91906
6.92164
6.92386
6.92571
6.92724
6.92853
6.92964
6.93059
6.93139
6.9321
6.9327
6.93323
6.93369
6.93411
6.93449
6.93486
6.93522
6.93558
6.93595
6.93632
6.93671
6.93711
6.93749
6.93779
6.93799
6.93809
4.79617
4.80525
4.82451
4.85631
4.90475
4.97611
5.07852
5.21802
5.38689
5.55417
5.71211
5.86097
5.99241
6.10842
6.21291
6.30334
6.38207
6.45144
6.50887
6.5558
6.5956
6.6305
6.66029
6.68588
6.70824
6.7272
6.74335
6.75733
6.76913
6.77921
6.78825
6.79656
6.80382
6.81012
6.81566
6.82039
6.82443
6.82794
6.83093
6.83349
6.83569
6.83751
6.83899
6.84024
6.84132
6.84224
6.84303
6.84372
6.8443
6.84482
6.84527
6.84567
6.84604
6.8464
6.84677
6.84713
6.8475
6.84789
6.8483
6.84873
6.84915
6.84949
6.8497
6.8498
4.63669
4.64516
4.66323
4.69337
4.74009
4.81079
4.91617
5.06649
5.2549
5.43532
5.60244
5.76102
5.89773
6.01704
6.12559
6.21801
6.29814
6.3697
6.42766
6.47397
6.51322
6.54823
6.5778
6.60312
6.62551
6.64426
6.66016
6.67405
6.6856
6.69538
6.70426
6.71264
6.71988
6.72613
6.73169
6.73636
6.74034
6.74384
6.74678
6.74929
6.75149
6.75327
6.7547
6.7559
6.75696
6.75785
6.75861
6.75928
6.75985
6.76034
6.76079
6.76118
6.76153
6.76188
6.76225
6.76261
6.76299
6.76339
6.76382
6.76428
6.76476
6.76513
6.76535
6.76545
4.48322
4.49098
4.50762
4.53566
4.57989
4.64871
4.75574
4.91721
5.12964
5.32324
5.49858
5.668
5.80923
5.93094
6.04399
6.13788
6.21891
6.29317
6.35139
6.39659
6.43499
6.47024
6.49947
6.52439
6.54688
6.56535
6.5809
6.59474
6.60598
6.61537
6.62406
6.63258
6.63978
6.64596
6.65154
6.65614
6.66004
6.66353
6.66642
6.66888
6.67108
6.67281
6.67418
6.67533
6.67636
6.67722
6.67795
6.67861
6.67916
6.67963
6.68007
6.68044
6.68078
6.68112
6.68149
6.68185
6.68223
6.68265
6.68309
6.68359
6.68413
6.68453
6.68477
6.68487
4.33566
4.34262
4.35762
4.38315
4.42411
4.4897
4.59659
4.76908
5.01186
5.21802
5.39992
5.58206
5.7267
5.84956
5.96802
6.06265
6.1439
6.22172
6.27988
6.32335
6.36057
6.39634
6.42507
6.4494
6.47216
6.49024
6.50535
6.51923
6.5301
6.539
6.54744
6.55621
6.56336
6.56941
6.57507
6.57957
6.58335
6.58686
6.58968
6.59207
6.59429
6.59598
6.59726
6.59835
6.59937
6.60019
6.60089
6.60154
6.60207
6.60252
6.60294
6.6033
6.60362
6.60395
6.60433
6.60468
6.60506
6.60549
6.60594
6.60647
6.6071
6.60754
6.60778
6.60788
4.19389
4.19999
4.21318
4.23583
4.27277
4.33366
4.43807
4.62066
4.9028
5.11976
5.30557
5.50353
5.64992
5.7722
5.89772
5.99204
6.07255
6.15534
6.21297
6.25397
6.28959
6.3264
6.3544
6.37789
6.40121
6.41876
6.43327
6.44736
6.45778
6.46606
6.4742
6.4834
6.49043
6.4963
6.5021
6.50647
6.5101
6.51367
6.51639
6.51869
6.52097
6.52259
6.52378
6.5248
6.52581
6.5266
6.52726
6.5279
6.52841
6.52883
6.52925
6.52959
6.52988
6.5302
6.53059
6.53094
6.53131
6.53177
6.53222
6.53278
6.53352
6.53399
6.53423
6.53432
4.05779
4.06297
4.07423
4.0937
4.12594
4.18062
4.27958
4.46994
4.80429
5.02858
5.2143
5.43302
5.57866
5.69796
5.83328
5.92578
6.00416
6.09412
6.15049
6.18815
6.22165
6.26034
6.28726
6.30957
6.33393
6.35072
6.36442
6.37901
6.38886
6.39637
6.40411
6.41401
6.42085
6.42644
6.4325
6.43668
6.44011
6.4438
6.44639
6.44857
6.45096
6.45251
6.45358
6.45452
6.45555
6.45628
6.4569
6.45755
6.45802
6.45842
6.45885
6.45916
6.45942
6.45972
6.46014
6.46047
6.46083
6.46131
6.46176
6.46234
6.46323
6.46372
6.46396
6.46404
3.92724
3.93147
3.9407
3.95677
3.98373
4.0307
4.12065
4.31419
4.71901
4.94453
5.12438
5.37153
5.51267
5.62571
5.77516
5.8636
5.93785
6.03834
6.0923
6.12557
6.1563
6.19817
6.22348
6.24412
6.27024
6.28595
6.29855
6.31408
6.32319
6.32975
6.33696
6.34795
6.35446
6.35965
6.36614
6.37005
6.37321
6.37712
6.37953
6.38155
6.38413
6.38558
6.38651
6.38735
6.38842
6.3891
6.38966
6.39034
6.39077
6.39113
6.39157
6.39185
6.39208
6.39236
6.39282
6.39313
6.39347
6.39399
6.39442
6.39501
6.39609
6.3966
6.39682
6.39689
3.80209
3.80537
3.81251
3.82504
3.84627
3.88417
3.96103
4.14964
4.65073
4.86754
5.03344
5.32059
5.45166
5.55396
5.72411
5.80521
5.87254
5.98847
6.03821
6.06596
6.09302
6.13998
6.16287
6.18116
6.21014
6.22429
6.2354
6.2525
6.26063
6.26605
6.27251
6.28515
6.29111
6.29572
6.30292
6.30643
6.30922
6.31352
6.31567
6.31746
6.32035
6.32165
6.32242
6.32314
6.32431
6.32491
6.3254
6.32613
6.32651
6.32683
6.3273
6.32755
6.32773
6.32798
6.3285
6.32878
6.32908
6.32967
6.33005
6.33062
6.33198
6.33248
6.33267
6.33273
3.6822
3.68452
3.68958
3.69848
3.71371
3.74143
3.80084
3.97117
4.60467
4.79738
4.9383
5.28245
5.3953
5.48078
5.68135
5.75033
5.80683
5.9453
5.98801
6.00904
6.0312
6.08599
6.10525
6.12027
6.15372
6.16556
6.17463
6.19426
6.20102
6.20509
6.21049
6.22558
6.23067
6.23446
6.24275
6.24569
6.24796
6.25288
6.25467
6.25614
6.2595
6.2606
6.26117
6.26176
6.26308
6.26358
6.26397
6.2648
6.26511
6.26536
6.26589
6.26609
6.26623
6.26644
6.26705
6.26728
6.26754
6.26822
6.26854
6.26904
6.27077
6.27123
6.27137
6.27142
3.56743
3.5688
3.5718
3.57708
3.58618
3.60298
3.64081
3.77188
4.58789
4.73351
4.83477
5.26031
5.34311
5.40371
5.64863
5.69866
5.73896
5.90996
5.94138
5.95457
5.9701
6.0366
6.05046
6.06094
6.10113
6.10961
6.11591
6.1394
6.14422
6.14676
6.15063
6.16928
6.17299
6.17563
6.18558
6.18769
6.18926
6.19512
6.1964
6.19743
6.2015
6.20229
6.20265
6.20305
6.20462
6.20497
6.20524
6.20622
6.20644
6.20661
6.20723
6.20737
6.20746
6.20761
6.20835
6.20851
6.20869
6.20951
6.20974
6.21012
6.21236
6.21271
6.2128
6.21283
3.4576
3.45805
3.45904
3.46079
3.46379
3.4694
3.48252
3.5426
4.60976
4.67496
4.71746
5.25853
5.29449
5.31961
5.62837
5.64982
5.66669
5.88409
5.89785
5.90238
5.90881
5.99238
5.99828
6.00256
6.05267
6.05626
6.05882
6.08803
6.09007
6.09094
6.09259
6.11632
6.11792
6.119
6.13139
6.13228
6.13292
6.14019
6.14072
6.14115
6.14625
6.14659
6.14672
6.14688
6.14882
6.14897
6.14908
6.15027
6.15037
6.15043
6.1512
6.15126
6.15129
6.15135
6.15228
6.15235
6.15242
6.15344
6.15353
6.15371
6.15664
6.1568
6.15683
6.15684
)
;

boundaryField
{
    left
    {
        type            zeroGradient;
    }
    right
    {
        type            zeroGradient;
    }
    interface
    {
        type            fixedValue;
        value           nonuniform List<scalar> 
64
(
3.40391
3.40391
3.40391
3.40391
3.40391
3.40391
3.40391
3.40391
4.64694
4.64694
4.64694
5.27102
5.27102
5.27102
5.62608
5.62608
5.62608
5.87683
5.87683
5.87683
5.87683
5.97283
5.97283
5.97283
6.03023
6.03023
6.03023
6.06365
6.06365
6.06365
6.06365
6.09104
6.09104
6.09104
6.10522
6.10522
6.10522
6.11353
6.11353
6.11353
6.11939
6.11939
6.11939
6.11939
6.12161
6.12161
6.12161
6.12297
6.12297
6.12297
6.12385
6.12385
6.12385
6.12385
6.12491
6.12491
6.12491
6.12608
6.12608
6.12608
6.12949
6.12949
6.12949
6.12949
)
;
    }
    bottom
    {
        type            fixedValue;
        value           uniform 10;
    }
    defaultFaces
    {
        type            empty;
    }
}


// ************************************************************************* //
