/*--------------------------------*- C++ -*----------------------------------*\
| =========                 |                                                 |
| \\      /  F ield         | OpenFOAM: The Open Source CFD Toolbox           |
|  \\    /   O peration     | Version:  5.x                                   |
|   \\  /    A nd           | Web:      www.OpenFOAM.org                      |
|    \\/     M anipulation  |                                                 |
\*---------------------------------------------------------------------------*/
FoamFile
{
    version     2.0;
    format      ascii;
    class       volScalarField;
    location    "11.4";
    object      gradTx;
}
// * * * * * * * * * * * * * * * * * * * * * * * * * * * * * * * * * * * * * //

dimensions      [0 -1 0 1 0 0 0];

internalField   nonuniform List<scalar> 
2048
(
0.0222203
0.0664142
0.109845
0.151936
0.192028
0.229395
0.263274
0.292937
0.317761
0.337295
0.351309
0.359809
0.363026
0.36138
0.35543
0.345831
0.333275
0.318461
0.302054
0.284661
0.266814
0.248957
0.231447
0.214553
0.198468
0.183317
0.169166
0.156037
0.143912
0.132745
0.122467
0.112998
0.104254
0.0961513
0.0886143
0.0815777
0.0749876
0.0688019
0.0629892
0.0575272
0.0524007
0.0475996
0.0431168
0.0389459
0.0350798
0.0315093
0.0282231
0.025208
0.0224487
0.0199288
0.0176311
0.0155381
0.0136321
0.0118958
0.0103123
0.00886527
0.00753919
0.0063192
0.00519099
0.00414058
0.00315413
0.00221766
0.00131688
0.000436803
0.0658932
0.196969
0.32584
0.450815
0.569942
0.681036
0.781794
0.870002
0.943761
1.0017
1.04312
1.06806
1.07723
1.07189
1.05377
1.02481
0.987119
0.942775
0.893768
0.84191
0.78878
0.735697
0.683709
0.633607
0.585953
0.541105
0.499255
0.460457
0.424651
0.391693
0.361375
0.333454
0.307672
0.283781
0.261554
0.240796
0.221349
0.203089
0.185923
0.169788
0.154641
0.140454
0.127207
0.114883
0.103461
0.0929149
0.0832114
0.0743105
0.0661669
0.0587316
0.0519535
0.0457805
0.0401603
0.0350413
0.0303734
0.0261085
0.0222005
0.0186057
0.0152819
0.0121881
0.00928334
0.00652669
0.00387629
0.00128618
0.108194
0.323482
0.535336
0.741047
0.937406
1.12074
1.28713
1.43276
1.55435
1.64954
1.71715
1.75727
1.77115
1.76101
1.72975
1.68071
1.6174
1.54331
1.46176
1.37575
1.28788
1.20032
1.11476
1.03248
0.954369
0.880978
0.8126
0.749299
0.690959
0.63732
0.588023
0.54265
0.500765
0.461947
0.425819
0.392061
0.360412
0.330675
0.302702
0.276394
0.251686
0.228538
0.206923
0.186817
0.16819
0.150999
0.135189
0.120694
0.107438
0.0953415
0.0843184
0.0742834
0.0651503
0.0568345
0.0492536
0.0423287
0.0359848
0.0301508
0.0247584
0.0197412
0.0150331
0.0105676
0.00627746
0.00208392
0.149404
0.446838
0.739919
1.02505
1.29781
1.55294
1.78473
1.98753
2.15649
2.28812
2.38072
2.43449
2.45135
2.43459
2.38847
2.31779
2.22757
2.12275
2.008
1.88753
1.76495
1.64324
1.5247
1.41104
1.3034
1.20252
1.10873
1.02208
0.942368
0.869201
0.802045
0.740286
0.683292
0.630461
0.581263
0.535251
0.492074
0.451462
0.413224
0.377232
0.343408
0.31171
0.28211
0.254585
0.229097
0.205589
0.183986
0.164193
0.146106
0.129609
0.114587
0.100918
0.0884841
0.0771681
0.0668561
0.0574393
0.0488151
0.0408868
0.0335621
0.0267512
0.0203645
0.0143117
0.00850189
0.00282317
0.189683
0.567551
0.940581
1.30447
1.65359
1.981
2.27889
2.53946
2.75591
2.92345
3.03982
3.10543
3.12306
3.09729
3.03392
2.93937
2.82028
2.68312
2.53397
2.37825
2.22061
2.06478
1.91363
1.76922
1.63291
1.50551
1.38739
1.27854
1.17864
1.08714
1.00329
0.926267
0.855204
0.78931
0.727893
0.670389
0.616355
0.565466
0.517493
0.47229
0.429777
0.389919
0.3527
0.318103
0.286089
0.25659
0.229505
0.204714
0.182078
0.161449
0.142677
0.125609
0.110093
0.0959799
0.0831248
0.0713899
0.0606463
0.0507735
0.0416575
0.0331876
0.0252529
0.0177408
0.0105379
0.00349983
0.229065
0.685784
1.13775
1.58021
2.00637
2.40741
2.77303
3.09275
3.35741
3.5606
3.69946
3.77479
3.7905
3.75276
3.66917
3.54797
3.39752
3.22593
3.04073
2.84863
2.65528
2.46518
2.28166
2.10705
1.94284
1.78989
1.64851
1.51861
1.39973
1.29112
1.1918
1.10066
1.01661
0.938623
0.86585
0.79761
0.733385
0.6728
0.615601
0.561637
0.510836
0.463183
0.418688
0.377351
0.339138
0.303965
0.271711
0.24222
0.215319
0.190826
0.168556
0.148325
0.129948
0.113244
0.098037
0.0841598
0.0714588
0.0597922
0.0490271
0.0390344
0.0296844
0.0208442
0.0123789
0.00411156
0.267472
0.801358
1.33134
1.85251
2.35702
2.8339
3.26984
3.65097
3.96512
4.2039
4.36385
4.44641
4.457
4.40382
4.29653
4.14542
3.9607
3.75219
3.52898
3.2991
3.06924
2.84459
2.62888
2.4246
2.23328
2.05571
1.89214
1.74235
1.60572
1.48127
1.36773
1.26369
1.16775
1.07865
0.995379
0.917146
0.843372
0.77365
0.707711
0.645406
0.586687
0.531575
0.480123
0.43236
0.38826
0.347729
0.310613
0.276719
0.245836
0.217745
0.192229
0.169071
0.148054
0.128966
0.111597
0.095752
0.0812541
0.0679422
0.0556679
0.0442872
0.0336543
0.0236174
0.0140215
0.00465723
0.304712
0.913768
1.52071
2.12095
2.70569
3.26153
3.77144
4.21718
4.5827
4.85719
5.03662
5.12345
5.12521
5.05257
4.91766
4.73298
4.51075
4.26255
3.9991
3.72985
3.46257
3.20308
2.95538
2.722
2.50436
2.30314
2.11845
1.94994
1.79681
1.65783
1.53138
1.41567
1.30896
1.20974
1.11681
1.0293
0.946593
0.868262
0.794036
0.72378
0.657478
0.59521
0.53709
0.483194
0.433512
0.38793
0.346258
0.308257
0.273672
0.242246
0.21373
0.187876
0.16444
0.143171
0.123829
0.106189
0.0900505
0.0752368
0.0615883
0.0489503
0.0371639
0.0260605
0.0154656
0.00513663
0.340487
1.02219
1.70477
2.38451
3.05189
3.69078
4.27947
4.7941
5.21353
5.52396
5.72091
5.80852
5.79711
5.70048
5.53363
5.31147
5.04823
4.75734
4.45122
4.1409
3.83525
3.54067
3.26127
2.99943
2.75633
2.53243
2.3277
2.14165
1.97329
1.82112
1.68312
1.55703
1.44069
1.33231
1.23053
1.13443
1.04337
0.956924
0.874834
0.796979
0.723392
0.65423
0.5897
0.529946
0.474974
0.424647
0.378724
0.336909
0.298897
0.264393
0.233117
0.204795
0.179153
0.155907
0.134779
0.11551
0.0978795
0.0817001
0.0668053
0.0530348
0.0402197
0.0281768
0.0167124
0.00555014
0.374401
1.12553
1.88193
2.64154
3.39448
4.12155
4.79524
5.38429
5.86087
6.20745
6.4195
6.50366
6.47408
6.34845
6.14503
5.88127
5.5734
5.23664
4.88528
4.53208
4.18716
3.85737
3.54669
3.25714
2.98951
2.74395
2.52025
2.31781
2.13551
1.97154
1.82341
1.68827
1.56345
1.44685
1.33699
1.23292
1.13404
1.03995
0.950387
0.865254
0.784637
0.708799
0.63808
0.572722
0.512749
0.457982
0.408112
0.362774
0.321603
0.284269
0.250465
0.219895
0.192258
0.167234
0.1445
0.123764
0.104783
0.0873643
0.0713422
0.0565561
0.0428314
0.0299719
0.0177648
0.00589861
0.405973
1.2224
2.05015
2.88979
3.73166
4.55322
5.31977
5.99026
6.52796
6.91081
7.13482
7.21048
7.15698
6.99685
6.75202
6.44245
6.08628
5.70038
5.30103
4.9031
4.51809
4.15314
3.81182
3.49548
3.20433
2.93813
2.69652
2.47883
2.28386
2.10952
1.95276
1.80995
1.6778
1.55388
1.43665
1.32519
1.21898
1.11767
1.021
0.928877
0.841439
0.759091
0.682366
0.611638
0.546949
0.488052
0.434544
0.38597
0.341903
0.301976
0.265862
0.233254
0.203828
0.177224
0.153063
0.131011
0.11081
0.0922677
0.0752264
0.0595327
0.0450109
0.0314527
0.0186264
0.00618315
0.43465
1.31119
2.20699
3.12644
4.06095
4.98462
5.85384
6.61463
7.21826
7.63713
7.86904
7.93006
7.84607
7.64553
7.35435
6.99486
6.58678
6.14838
5.69812
5.25352
4.82776
4.42798
4.0569
3.71488
3.40131
3.1155
2.85699
2.62513
2.41874
2.23553
2.07174
1.92271
1.78436
1.65398
1.53
1.41164
1.29856
1.19043
1.08699
0.988135
0.894038
0.805285
0.722691
0.646815
0.577699
0.514989
0.458155
0.406631
0.359919
0.317622
0.279405
0.244957
0.213943
0.185954
0.160542
0.13732
0.116017
0.0964524
0.0784879
0.0619849
0.0467709
0.0326272
0.0193014
0.00640505
0.459832
1.39015
2.34966
3.34808
4.3792
5.414
6.39808
7.2603
7.93549
8.38951
8.624
8.66301
8.54106
8.29389
7.95147
7.53814
7.07476
6.58047
6.07609
5.58279
5.11585
4.68194
4.28227
3.91589
3.5811
3.27668
3.0022
2.75715
2.54055
2.35003
2.18095
2.02723
1.88381
1.74773
1.61752
1.49269
1.37312
1.25856
1.14868
1.04333
0.942687
0.847558
0.759178
0.678366
0.605126
0.538934
0.479096
0.424906
0.375787
0.331327
0.291195
0.255091
0.222684
0.19351
0.167021
0.142763
0.120462
0.0999629
0.0811578
0.0639333
0.0481248
0.0335033
0.0197941
0.00656565
0.4809
1.4574
2.47509
3.55078
4.68249
5.83894
6.95298
7.93062
8.68391
9.17106
9.40122
9.40943
9.24107
8.94082
8.54252
8.07182
7.55015
6.99652
6.43439
5.89021
5.38199
4.91511
4.48837
4.09918
3.74443
3.42234
3.13273
2.87536
2.64965
2.45346
2.28103
2.12426
1.97683
1.83572
1.69971
1.5687
1.44301
1.32239
1.20639
1.09479
0.987651
0.886076
0.791932
0.7064
0.629365
0.560039
0.497528
0.440951
0.389647
0.343214
0.301334
0.263741
0.230134
0.19998
0.172589
0.14742
0.124208
0.102845
0.083267
0.065398
0.0490856
0.0340893
0.0201089
0.00666637
0.497246
1.51106
2.58004
3.73012
4.96612
6.25626
7.51888
8.62964
9.46843
9.98488
10.2018
10.1689
9.94457
9.58481
9.12645
8.59534
8.013
7.39657
6.77238
6.17488
5.62581
5.12769
4.67575
4.26555
3.89218
3.55324
3.24921
2.98021
2.74635
2.54623
2.37269
2.21464
2.06416
1.91854
1.777
1.64002
1.50854
1.38223
1.26045
1.14284
1.02921
0.920992
0.821031
0.731014
0.650553
0.578462
0.513623
0.454935
0.401645
0.353408
0.309926
0.270987
0.236369
0.205458
0.177345
0.15137
0.127316
0.105142
0.0848453
0.0663982
0.0496659
0.034393
0.0202503
0.00670861
0.508307
1.54932
2.66122
3.8813
5.22455
6.66183
8.09595
9.36241
10.2949
10.8339
11.0266
10.9403
10.6493
10.224
9.70204
9.10808
8.46368
7.78095
7.08928
6.43566
5.84692
5.32006
4.84507
4.41593
4.02533
3.67015
3.35233
3.07217
2.83085
2.62865
2.45669
2.29928
2.14651
1.99677
1.84984
1.70692
1.56997
1.43838
1.31115
1.18786
1.06768
0.952431
0.846508
0.752294
0.66884
0.594369
0.527564
0.467036
0.411929
0.362036
0.317073
0.2769
0.241459
0.210039
0.181391
0.154699
0.129847
0.106899
0.0859203
0.0669513
0.0498774
0.0344224
0.0202227
0.0066938
0.513608
1.57059
2.71545
3.99923
5.45135
7.05035
8.68404
10.1354
11.1702
11.7208
11.8755
11.7224
11.3523
10.856
10.268
9.60931
8.90293
8.15046
7.38409
6.671
6.04498
5.4928
4.99707
4.5514
4.14499
3.77388
3.44278
3.15171
2.90319
2.70093
2.53386
2.37922
2.22462
2.07097
1.91863
1.76961
1.62757
1.49114
1.35879
1.23024
1.1034
0.980481
0.868342
0.770321
0.684389
0.607926
0.539543
0.47744
0.420639
0.369226
0.322875
0.281534
0.245462
0.213825
0.184843
0.157488
0.13186
0.108157
0.0865169
0.0670725
0.0497313
0.0341852
0.0200305
0.0066234
0.512792
1.57355
2.73984
4.07871
5.63917
7.41502
9.28247
10.9569
12.1031
12.6471
12.7482
12.5131
12.0495
11.4786
10.8233
10.098
9.33209
8.50656
7.65547
6.87883
6.21977
5.64683
5.13252
4.67318
4.25244
3.86515
3.52137
3.21937
2.96322
2.76309
2.6052
2.45566
2.29911
2.14168
1.98375
1.82819
1.68153
1.54079
1.4036
1.27042
1.13679
1.00518
0.886433
0.785173
0.697388
0.619295
0.549759
0.486344
0.427907
0.375104
0.327438
0.284929
0.248418
0.216924
0.187826
0.159818
0.133408
0.108957
0.0866565
0.0667746
0.0492384
0.0336892
0.0196783
0.00649889
0.50565
1.5573
2.73195
4.11465
5.77984
7.74718
9.88963
11.8379
13.104
13.613
13.6435
13.3105
12.7357
12.0892
11.3669
10.5728
9.75326
8.85171
7.90153
7.05631
6.37134
5.78352
5.25211
4.78265
4.34914
3.94457
3.58896
3.27577
3.01049
2.81489
2.67191
2.53002
2.37052
2.20938
2.0456
1.88259
1.73206
1.58764
1.44573
1.30893
1.16836
1.02646
0.900575
0.796942
0.70807
0.628625
0.558426
0.493962
0.433842
0.379801
0.330873
0.287096
0.250341
0.21946
0.190486
0.161762
0.134539
0.109336
0.0863558
0.0660676
0.0484094
0.0329426
0.0191709
0.0063218
0.492149
1.52142
2.69001
4.10231
5.8644
8.03585
10.5023
12.7933
14.1863
14.6158
14.5598
14.1131
13.4037
12.6856
11.8986
11.0309
10.1696
9.1898
8.11947
7.19953
6.50022
5.90491
5.35622
4.88139
4.43683
4.01242
3.64659
3.32178
3.04418
2.85573
2.73553
2.60405
2.43907
2.27455
2.10462
1.93255
1.77938
1.63201
1.48516
1.34639
1.19877
1.04418
0.910422
0.805758
0.716729
0.63602
0.56577
0.500533
0.438518
0.383452
0.33331
0.28801
0.251213
0.221573
0.192994
0.163376
0.13529
0.109335
0.0856265
0.0649586
0.0472559
0.031954
0.0185132
0.00609374
0.472438
1.46604
2.61305
4.03762
5.88336
8.26728
11.1148
13.8427
15.367
15.6481
15.4951
14.9202
14.0438
13.2663
12.4192
11.4681
10.5856
9.5268
8.30513
7.30313
6.60774
6.01394
5.44462
4.97124
4.51764
4.06844
3.69549
3.35864
3.06292
2.88446
2.79807
2.6799
2.50455
2.3377
2.16138
1.97747
1.82376
1.67437
1.52166
1.38354
1.22891
1.05797
0.915442
0.811828
0.723754
0.641514
0.572038
0.506333
0.441941
0.386202
0.334912
0.287604
0.25097
0.223438
0.195553
0.164693
0.135689
0.108999
0.0844725
0.0634517
0.0457914
0.0307329
0.0177101
0.0058164
0.446851
1.39188
2.50107
3.91753
5.82707
8.42449
11.717
15.0126
16.6679
16.6953
16.4479
15.7338
14.6423
13.8312
12.9315
11.8766
11.0078
9.87159
8.4523
7.3598
6.6965
6.11482
5.51588
5.05443
4.59431
4.11147
3.73726
3.38821
3.06462
2.8992
2.86228
2.76034
2.566
2.3994
2.21671
2.01625
1.8656
1.71534
1.55454
1.42136
1.25999
1.06722
0.914865
0.815486
0.729669
0.645007
0.577514
0.511702
0.444023
0.38822
0.335898
0.285743
0.249483
0.225274
0.198416
0.1657
0.135756
0.108381
0.0828876
0.0615478
0.0440326
0.0292889
0.016767
0.00549159
0.415893
1.3002
2.35514
3.74034
5.68627
8.48694
12.2925
16.3387
18.1178
17.7315
17.4179
16.5595
15.1791
14.3827
13.4411
12.2437
11.4454
10.2371
8.55172
7.35973
6.77107
6.21347
5.56664
5.13381
4.6705
4.13888
3.77402
3.41327
3.04625
2.89705
2.9319
2.84894
2.62125
2.46043
2.27187
2.04704
1.90555
1.75586
1.58249
1.46109
1.29368
1.07097
0.907616
0.817272
0.735182
0.646179
0.582541
0.517075
0.444515
0.389713
0.336571
0.282211
0.24654
0.22737
0.201899
0.166316
0.135498
0.107557
0.0808498
0.0592452
0.0420016
0.0276323
0.0156888
0.00512132
0.380217
1.19281
2.1774
3.50606
5.4528
8.43046
12.815
17.869
19.7546
18.714
18.4085
17.4094
15.6249
14.9267
13.9579
12.5486
11.9112
10.6418
8.58974
7.2899
6.83878
6.31812
5.59044
5.21324
4.75125
4.14582
3.8087
3.43795
3.0035
2.87372
3.01209
2.95041
2.66636
2.52201
2.3288
2.06685
1.94471
1.79734
1.60322
1.50441
1.3323
1.06769
0.892245
0.818029
0.741255
0.644369
0.587562
0.523038
0.442937
0.390952
0.337359
0.276676
0.241822
0.230106
0.206402
0.166358
0.134922
0.106629
0.0783141
0.0565406
0.0397282
0.0257725
0.014481
0.0047079
0.340586
1.07192
1.97106
3.21668
5.12054
8.22769
13.2439
19.6673
21.6292
19.5758
19.4292
18.3052
15.9364
15.4757
14.4986
12.7586
12.4234
11.1115
8.54658
7.13339
6.91088
6.44009
5.57614
5.29816
4.84364
4.12408
3.84542
3.46829
2.93041
2.82305
3.10993
3.07095
2.69472
2.58606
2.39052
2.07101
1.98483
1.84195
1.61296
1.55358
1.379
1.05513
0.866845
0.819025
0.749193
0.638404
0.593182
0.530389
0.438457
0.39231
0.338865
0.268655
0.234867
0.233993
0.212441
0.165491
0.134041
0.105748
0.0752006
0.0534308
0.0372533
0.0237171
0.0131486
0.00425407
0.297838
0.940096
1.74025
2.87632
4.68647
7.84922
13.518
21.8184
23.81
20.2155
20.4997
19.2821
16.0498
16.0505
15.0895
12.8236
13.0077
11.6818
8.39394
6.86861
7.00384
6.59473
5.50582
5.39643
4.95761
4.06067
3.89005
3.51285
2.81889
2.73649
3.235
3.21883
2.69598
2.65571
2.46153
2.05242
2.02868
1.89294
1.60588
1.61174
1.4381
1.03002
0.828976
0.822107
0.760746
0.626363
0.600258
0.54024
0.42975
0.394317
0.34193
0.257467
0.225037
0.239712
0.220675
0.163168
0.132897
0.105127
0.0713774
0.0499171
0.034632
0.0214693
0.011697
0.00376317
0.252842
0.800077
1.48983
2.49124
4.1518
7.26573
13.5474
24.4331
26.3894
20.4843
21.6562
20.3945
15.8724
16.6852
15.77
12.6692
13.7
12.4006
8.09215
6.46859
7.14086
6.80271
5.35197
5.51954
5.10711
3.93581
3.951
3.58346
2.65818
2.60235
3.4001
3.40504
2.65451
2.73592
2.54844
2.00058
2.08052
1.95508
1.57322
1.68323
1.51535
0.987698
0.775598
0.829875
0.778251
0.605278
0.610025
0.554124
0.414791
0.397737
0.347699
0.242171
0.211475
0.248166
0.231954
0.158541
0.131583
0.105065
0.0666375
0.0460117
0.0319383
0.019025
0.0101319
0.0032393
0.206454
0.654659
1.22516
2.06971
3.52301
6.45164
13.2033
27.6555
29.4915
20.1692
22.9589
21.7218
15.2714
17.4319
16.5973
12.1874
14.5503
13.3313
7.58649
5.90044
7.35357
7.09156
5.074
5.68415
5.31142
3.72049
4.04023
3.69607
2.4342
2.40507
3.62207
3.64419
2.5476
2.83436
2.66068
1.90026
2.14669
2.03523
1.50221
1.77406
1.6183
0.921718
0.703019
0.845866
0.804805
0.570749
0.624269
0.57415
0.390602
0.403677
0.357706
0.221496
0.19306
0.260529
0.247368
0.150365
0.130292
0.105972
0.0606686
0.0417475
0.0292692
0.0163677
0.00846052
0.00268736
0.159486
0.506559
0.95181
1.62161
2.81264
5.39052
12.3049
31.6697
33.283
18.9724
24.5023
23.3765
14.0601
18.3674
17.6528
11.226
15.6283
14.5559
6.80286
5.12506
7.68379
7.49756
4.61392
5.91423
5.59686
3.37333
4.17464
3.87162
2.12887
2.12429
3.92269
3.95558
2.34309
2.96254
2.81139
1.72988
2.23642
2.14304
1.37481
1.89253
1.75674
0.823294
0.606885
0.874756
0.844468
0.516472
0.645554
0.603168
0.352938
0.413723
0.37395
0.19376
0.168362
0.278316
0.268311
0.136863
0.129374
0.108394
0.0530134
0.0371934
0.0267488
0.0134634
0.00669224
0.00211304
0.112672
0.358299
0.675232
1.15787
2.03959
4.08262
10.6041
36.7084
37.9852
16.4866
26.4281
25.5125
11.9807
19.6014
19.0484
9.5745
17.0293
16.1786
5.64277
4.09717
8.18515
8.06816
3.8911
6.24362
5.99868
2.83684
4.37783
4.13682
1.71939
1.7339
4.32951
4.3646
1.99662
3.13722
3.01841
1.45959
2.3628
2.29177
1.16604
2.05001
1.94305
0.6807
0.482215
0.922542
0.902526
0.433671
0.677503
0.644971
0.295899
0.43013
0.398979
0.156775
0.135597
0.303437
0.296553
0.115577
0.129409
0.113039
0.0430225
0.0324753
0.0245316
0.0102526
0.00484103
0.00152239
0.0666507
0.212114
0.400507
0.689731
1.22854
2.55504
7.76705
43.0616
43.8897
12.1659
28.941
28.3352
8.68449
21.2868
20.9344
6.94866
18.8825
18.3291
3.97762
2.76595
8.92454
8.86482
2.79622
6.71918
6.56326
2.03308
4.6823
4.52497
1.17747
1.201
4.87684
4.9043
1.44841
3.38211
3.30541
1.04892
2.54387
2.4992
0.842163
2.26186
2.19265
0.478573
0.323507
0.996699
0.985796
0.310434
0.725142
0.70452
0.211481
0.456047
0.435967
0.107747
0.0925811
0.338265
0.33433
0.0831859
0.131312
0.120803
0.0297974
0.0278031
0.0228047
0.00664211
0.00292791
0.000921161
0.0219548
0.0698962
0.132095
0.22796
0.408436
0.874615
3.35338
51.0855
51.3764
5.29223
32.3265
32.111
3.7091
23.6309
23.5086
2.97234
21.3606
21.1657
1.64245
1.07628
9.98314
9.96634
1.18436
7.40454
7.35045
0.858601
5.13212
5.0765
0.468673
0.484941
5.60649
5.61732
0.619473
3.72995
3.70309
0.444123
2.80407
2.7887
0.358514
2.54862
2.52433
0.197154
0.124917
1.10629
1.10299
0.130968
0.795311
0.788177
0.0890623
0.495794
0.488763
0.0431708
0.0367042
0.385687
0.384439
0.0353033
0.13645
0.132785
0.0121262
0.0235067
0.0217871
0.00249478
0.000984747
0.000313539
)
;

boundaryField
{
    left
    {
        type            calculated;
        value           uniform 0;
    }
    right
    {
        type            calculated;
        value           uniform 0;
    }
    interface
    {
        type            calculated;
        value           nonuniform List<scalar> 
64
(
0.0219548
0.0698962
0.132095
0.22796
0.408436
0.874615
3.35338
51.0855
51.3764
5.29223
32.3265
32.111
3.7091
23.6309
23.5086
2.97234
21.3606
21.1657
1.64245
1.07628
9.98314
9.96634
1.18436
7.40454
7.35045
0.858601
5.13212
5.0765
0.468673
0.484941
5.60649
5.61732
0.619473
3.72995
3.70309
0.444123
2.80407
2.7887
0.358514
2.54862
2.52433
0.197154
0.124917
1.10629
1.10299
0.130968
0.795311
0.788177
0.0890623
0.495794
0.488763
0.0431708
0.0367042
0.385687
0.384439
0.0353033
0.13645
0.132785
0.0121262
0.0235067
0.0217871
0.00249478
0.000984747
0.000313539
)
;
    }
    bottom
    {
        type            calculated;
        value           nonuniform List<scalar> 
64
(
0.0222203
0.0664142
0.109845
0.151936
0.192028
0.229395
0.263274
0.292937
0.317761
0.337295
0.351309
0.359809
0.363026
0.36138
0.35543
0.345831
0.333275
0.318461
0.302054
0.284661
0.266814
0.248957
0.231447
0.214553
0.198468
0.183317
0.169166
0.156037
0.143912
0.132745
0.122467
0.112998
0.104254
0.0961513
0.0886143
0.0815777
0.0749876
0.0688019
0.0629892
0.0575272
0.0524007
0.0475996
0.0431168
0.0389459
0.0350798
0.0315093
0.0282231
0.025208
0.0224487
0.0199288
0.0176311
0.0155381
0.0136321
0.0118958
0.0103123
0.00886527
0.00753919
0.0063192
0.00519099
0.00414058
0.00315413
0.00221766
0.00131688
0.000436803
)
;
    }
    defaultFaces
    {
        type            empty;
    }
}


// ************************************************************************* //
