/*--------------------------------*- C++ -*----------------------------------*\
| =========                 |                                                 |
| \\      /  F ield         | OpenFOAM: The Open Source CFD Toolbox           |
|  \\    /   O peration     | Version:  5.x                                   |
|   \\  /    A nd           | Web:      www.OpenFOAM.org                      |
|    \\/     M anipulation  |                                                 |
\*---------------------------------------------------------------------------*/
FoamFile
{
    version     2.0;
    format      ascii;
    class       volScalarField;
    location    "11.4";
    object      gradTy;
}
// * * * * * * * * * * * * * * * * * * * * * * * * * * * * * * * * * * * * * //

dimensions      [0 -1 0 1 0 0 0];

internalField   nonuniform List<scalar> 
2048
(
-20.1541
-20.0572
-19.8645
-19.5781
-19.2017
-18.7404
-18.2007
-17.5913
-16.9221
-16.2042
-15.4498
-14.6711
-13.8799
-13.0875
-12.304
-11.5381
-10.797
-10.0863
-9.41029
-8.77157
-8.17166
-7.61098
-7.08907
-6.6048
-6.15655
-5.74237
-5.36009
-5.00747
-4.68228
-4.38236
-4.10569
-3.8504
-3.61484
-3.39751
-3.19712
-3.01252
-2.84269
-2.68671
-2.54376
-2.41304
-2.29383
-2.18541
-2.08708
-1.99815
-1.91795
-1.84583
-1.78115
-1.72332
-1.67174
-1.62589
-1.58526
-1.54938
-1.51784
-1.49024
-1.46624
-1.44551
-1.42779
-1.41281
-1.40038
-1.39031
-1.38243
-1.37663
-1.37282
-1.37092
-20.2324
-20.1347
-19.9402
-19.651
-19.2705
-18.8037
-18.2572
-17.6397
-16.9614
-16.2338
-15.4695
-14.6811
-13.8809
-13.0803
-12.2898
-11.518
-10.7724
-10.0584
-9.38009
-8.74017
-8.13992
-7.57961
-7.05861
-6.57566
-6.12899
-5.71655
-5.33608
-4.98528
-4.66183
-4.36355
-4.08838
-3.83445
-3.60008
-3.3838
-3.18434
-3.00056
-2.83147
-2.67617
-2.53384
-2.40373
-2.2851
-2.17724
-2.07946
-1.99107
-1.9114
-1.8398
-1.77561
-1.71823
-1.66709
-1.62165
-1.58139
-1.54586
-1.51463
-1.48731
-1.46356
-1.44306
-1.42553
-1.41074
-1.39845
-1.3885
-1.38072
-1.375
-1.37124
-1.36936
-20.3814
-20.2821
-20.0843
-19.7898
-19.4016
-18.9244
-18.3649
-17.732
-17.0362
-16.29
-15.5067
-14.6996
-13.882
-13.0659
-12.2619
-11.4792
-10.7249
-10.0046
-9.3222
-8.68012
-8.07936
-7.51986
-7.0007
-6.52032
-6.07673
-5.66765
-5.29067
-4.94333
-4.62322
-4.32806
-4.05574
-3.80436
-3.57225
-3.35796
-3.16024
-2.978
-2.81029
-2.65626
-2.51511
-2.38612
-2.26858
-2.16178
-2.06505
-1.97769
-1.89903
-1.82839
-1.76513
-1.70864
-1.65832
-1.61364
-1.5741
-1.53922
-1.50858
-1.4818
-1.45852
-1.43844
-1.42129
-1.40682
-1.39482
-1.3851
-1.37751
-1.37193
-1.36826
-1.36644
-20.5925
-20.4912
-20.289
-19.9873
-19.5885
-19.0968
-18.5188
-17.8636
-17.1427
-16.3694
-15.5585
-14.7247
-13.8822
-13.0438
-12.2207
-11.4223
-10.6559
-9.92692
-9.239
-8.59412
-7.9929
-7.43481
-6.91848
-6.44194
-6.00286
-5.59867
-5.22672
-4.88436
-4.56902
-4.27831
-4.01002
-3.76224
-3.53329
-3.32177
-3.12646
-2.94636
-2.78057
-2.62828
-2.48877
-2.36135
-2.24532
-2.14003
-2.04477
-1.95887
-1.88163
-1.81236
-1.75042
-1.69516
-1.64602
-1.60242
-1.56387
-1.52991
-1.5001
-1.47407
-1.45146
-1.43198
-1.41535
-1.40134
-1.38973
-1.38035
-1.37303
-1.36765
-1.36411
-1.36236
-20.8585
-20.7549
-20.5478
-20.2377
-19.826
-19.3163
-18.7148
-18.0311
-17.2775
-16.4693
-15.6227
-14.7543
-13.8797
-13.0129
-12.1657
-11.3477
-10.5663
-9.82673
-9.13221
-8.48428
-7.88294
-7.32706
-6.81467
-6.34328
-5.91013
-5.51229
-5.14683
-4.81085
-4.50159
-4.21651
-3.95332
-3.71003
-3.485
-3.27687
-3.08453
-2.90703
-2.74358
-2.59343
-2.45593
-2.33043
-2.21629
-2.11285
-2.01945
-1.93538
-1.85992
-1.79239
-1.7321
-1.6784
-1.63071
-1.58847
-1.55118
-1.51835
-1.48958
-1.46448
-1.44271
-1.42397
-1.408
-1.39456
-1.38344
-1.37447
-1.36748
-1.36236
-1.359
-1.35732
-21.1728
-21.067
-20.8549
-20.5357
-20.1097
-19.5792
-18.9499
-18.2315
-17.4381
-16.5869
-15.6966
-14.7862
-13.8729
-12.9721
-12.0963
-11.2553
-10.4565
-9.70488
-9.00318
-8.3523
-7.75151
-7.19886
-6.69167
-6.22682
-5.80102
-5.41095
-5.05336
-4.72507
-4.42311
-4.14474
-3.88755
-3.64951
-3.42902
-3.22479
-3.03582
-2.86129
-2.70049
-2.55278
-2.41757
-2.29428
-2.18232
-2.08105
-1.98982
-1.90791
-1.83457
-1.76908
-1.71074
-1.65888
-1.61291
-1.57226
-1.53643
-1.50494
-1.47738
-1.45337
-1.43257
-1.41469
-1.39948
-1.3867
-1.37615
-1.36767
-1.36108
-1.35626
-1.3531
-1.35152
-21.5293
-21.4218
-21.2052
-20.8773
-20.4363
-19.8828
-19.2216
-18.4628
-17.6223
-16.72
-15.7781
-14.8182
-13.8599
-12.92
-12.0115
-11.1447
-10.3266
-9.56197
-8.85294
-8.19963
-7.60036
-7.05223
-6.55165
-6.09478
-5.67776
-5.29685
-4.94845
-4.6291
-4.33556
-4.06488
-3.8145
-3.58235
-3.36687
-3.1669
-2.9816
-2.81027
-2.65234
-2.50728
-2.37457
-2.25371
-2.14416
-2.04533
-1.95655
-1.87709
-1.80616
-1.743
-1.68687
-1.63709
-1.59305
-1.55419
-1.52
-1.49002
-1.46382
-1.44102
-1.42131
-1.40438
-1.39001
-1.37798
-1.36808
-1.36014
-1.35399
-1.34951
-1.34659
-1.34513
-21.9223
-21.8137
-21.594
-21.2586
-20.803
-20.2253
-19.5286
-18.7236
-17.8283
-16.8665
-15.8647
-14.848
-13.8387
-12.8549
-11.9104
-11.0154
-10.1766
-9.39844
-8.68234
-8.02751
-7.4311
-6.88901
-6.39661
-5.94923
-5.54242
-5.17201
-4.83406
-4.52483
-4.24077
-3.97867
-3.7358
-3.51004
-3.29991
-3.10444
-2.92297
-2.75499
-2.60007
-2.45778
-2.32771
-2.20943
-2.10247
-2.00629
-1.92022
-1.84348
-1.77523
-1.71464
-1.66095
-1.61346
-1.57154
-1.53464
-1.50224
-1.4739
-1.44918
-1.42771
-1.40916
-1.39327
-1.37981
-1.36858
-1.35938
-1.35204
-1.34639
-1.34229
-1.33962
-1.3383
-22.3461
-22.2378
-22.017
-21.6763
-21.2076
-20.6052
-19.8701
-19.0128
-18.0545
-17.0244
-15.9541
-14.8733
-13.8073
-12.7754
-11.7919
-10.8668
-10.0065
-9.21463
-8.49215
-7.8371
-7.24523
-6.71096
-6.22843
-5.79208
-5.39687
-5.03825
-4.71196
-4.41395
-4.14039
-3.88771
-3.65296
-3.43396
-3.22938
-3.0385
-2.86091
-2.69634
-2.54448
-2.40503
-2.27767
-2.16206
-2.05783
-1.96447
-1.88133
-1.80756
-1.74224
-1.68446
-1.63342
-1.58838
-1.54873
-1.51392
-1.48346
-1.45686
-1.43372
-1.41366
-1.39635
-1.38155
-1.36906
-1.35867
-1.35022
-1.34353
-1.33842
-1.33473
-1.33234
-1.33116
-22.7953
-22.6889
-22.4699
-22.1275
-21.6485
-21.0222
-20.2459
-19.3301
-18.3
-17.1917
-16.0438
-14.8916
-13.7634
-12.6799
-11.6551
-10.6986
-9.81612
-9.01086
-8.28303
-7.62949
-7.0442
-6.51976
-6.04891
-5.62516
-5.24289
-4.89724
-4.58373
-4.29803
-4.03592
-3.79346
-3.56734
-3.35535
-3.15637
-2.97005
-2.7963
-2.63509
-2.48629
-2.34969
-2.22506
-2.11216
-2.01073
-1.92035
-1.84035
-1.76979
-1.70763
-1.65287
-1.60464
-1.5622
-1.52495
-1.49234
-1.4639
-1.43916
-1.41768
-1.39909
-1.38307
-1.36939
-1.35789
-1.3484
-1.34074
-1.33473
-1.33019
-1.32695
-1.32487
-1.32384
-23.2642
-23.1619
-22.9488
-22.6095
-22.1245
-21.4763
-20.6567
-19.6756
-18.5636
-17.3663
-16.1314
-14.9004
-13.705
-12.5668
-11.4991
-10.5104
-9.60559
-8.7874
-8.0556
-7.40574
-6.82946
-6.3171
-5.85982
-5.45017
-5.08208
-4.75051
-4.45082
-4.17843
-3.92874
-3.69727
-3.48023
-3.27534
-3.08187
-2.89993
-2.72986
-2.57192
-2.42613
-2.29234
-2.1704
-2.0602
-1.96159
-1.8743
-1.79765
-1.73056
-1.67179
-1.62023
-1.57496
-1.53523
-1.50047
-1.47016
-1.44382
-1.42101
-1.40126
-1.38419
-1.36948
-1.35695
-1.34646
-1.33787
-1.33103
-1.32574
-1.32182
-1.31906
-1.31731
-1.31645
-23.7473
-23.6517
-23.4494
-23.1196
-22.6349
-21.9684
-21.1042
-20.0503
-18.8446
-17.546
-16.2138
-14.8967
-13.63
-12.435
-11.3233
-10.302
-9.37502
-8.54453
-7.81045
-7.16689
-6.6025
-6.10467
-5.66288
-5.26878
-4.91593
-4.59939
-4.31448
-4.05636
-3.82007
-3.60038
-3.3928
-3.19495
-3.00671
-2.82885
-2.66221
-2.5074
-2.36453
-2.23347
-2.11416
-2.00657
-1.91077
-1.82667
-1.75359
-1.69021
-1.63506
-1.58688
-1.54469
-1.50775
-1.47554
-1.44758
-1.42342
-1.4026
-1.38464
-1.36912
-1.35572
-1.34433
-1.33486
-1.3272
-1.3212
-1.31667
-1.31339
-1.31115
-1.30976
-1.30908
-24.239
-24.1531
-23.9675
-23.6552
-23.1791
-22.4999
-21.5905
-20.4553
-19.142
-17.7282
-16.288
-14.8778
-13.5361
-12.2831
-11.1273
-10.0737
-9.12474
-8.28252
-7.54806
-6.91403
-6.36486
-5.88418
-5.45978
-5.08253
-4.74581
-4.44509
-4.1758
-3.93288
-3.71099
-3.50395
-3.30615
-3.11509
-2.93161
-2.7574
-2.59386
-2.442
-2.30197
-2.17354
-2.05674
-1.95165
-1.85854
-1.7777
-1.70844
-1.64908
-1.59777
-1.55313
-1.51411
-1.48
-1.45037
-1.4248
-1.40285
-1.38409
-1.36798
-1.35403
-1.34194
-1.33166
-1.32319
-1.31646
-1.31133
-1.30759
-1.305
-1.3033
-1.30229
-1.30181
-24.7335
-24.6609
-24.4989
-24.2138
-23.7569
-23.0732
-22.1192
-20.8929
-19.4548
-17.91
-16.3506
-14.8403
-13.4214
-12.1106
-10.9109
-9.82573
-8.85526
-8.00154
-7.26879
-6.64824
-6.11824
-5.65741
-5.25222
-4.89296
-4.57293
-4.28863
-4.03571
-3.80883
-3.60247
-3.40911
-3.22137
-3.03655
-2.85716
-2.68605
-2.52519
-2.37611
-2.23885
-2.11294
-1.99851
-1.89573
-1.80512
-1.72759
-1.66246
-1.60746
-1.56022
-1.51924
-1.48346
-1.45219
-1.42515
-1.40198
-1.38228
-1.36562
-1.35142
-1.33906
-1.32823
-1.31902
-1.31152
-1.30571
-1.30147
-1.29857
-1.2967
-1.29559
-1.29498
-1.29471
-25.2252
-25.1697
-25.039
-24.7923
-24.3681
-23.691
-22.695
-21.3659
-19.7815
-18.0877
-16.398
-14.781
-13.2839
-11.9168
-10.6745
-9.559
-8.56741
-7.70162
-6.97275
-6.37067
-5.86451
-5.42614
-5.04183
-4.70151
-4.39836
-4.1309
-3.89501
-3.68489
-3.49532
-3.31693
-3.1395
-2.96004
-2.78381
-2.61517
-2.45647
-2.31003
-2.17556
-2.052
-1.93981
-1.83909
-1.75066
-1.67647
-1.61587
-1.56564
-1.52268
-1.48548
-1.45298
-1.42449
-1.40001
-1.37926
-1.3618
-1.34731
-1.3351
-1.32433
-1.31468
-1.30646
-1.29991
-1.29502
-1.29169
-1.28965
-1.28855
-1.28805
-1.28788
-1.28783
-25.7087
-25.6742
-25.5829
-25.3875
-25.0122
-24.357
-23.3241
-21.8785
-20.1198
-18.2568
-16.4261
-14.6961
-13.1217
-11.7021
-10.4184
-9.27465
-8.26241
-7.38249
-6.65973
-6.08255
-5.60581
-5.19217
-4.83022
-4.50962
-4.22299
-3.97259
-3.75436
-3.56151
-3.3902
-3.22853
-3.06167
-2.88609
-2.71187
-2.54503
-2.38786
-2.24401
-2.11244
-1.99104
-1.88096
-1.78202
-1.69522
-1.62436
-1.56886
-1.52391
-1.48541
-1.45208
-1.42286
-1.39705
-1.37508
-1.35673
-1.34151
-1.32926
-1.31914
-1.30997
-1.30138
-1.29405
-1.28839
-1.28441
-1.28201
-1.28088
-1.28059
-1.28076
-1.28105
-1.28123
-26.1787
-26.169
-26.1257
-25.9956
-25.6885
-25.0754
-24.0146
-22.436
-20.466
-18.4116
-16.4314
-14.5814
-12.9331
-11.4675
-10.1432
-8.97432
-7.94214
-7.04341
-6.329
-5.78532
-5.34473
-4.95723
-4.6189
-4.31875
-4.04744
-3.81424
-3.61436
-3.43887
-3.28759
-3.14509
-2.98909
-2.81507
-2.64148
-2.47586
-2.31937
-2.17822
-2.04988
-1.93029
-1.82226
-1.72482
-1.63875
-1.57122
-1.52161
-1.48261
-1.44864
-1.41925
-1.39331
-1.36997
-1.35045
-1.33451
-1.32145
-1.31152
-1.30365
-1.29609
-1.28837
-1.2818
-1.27701
-1.27391
-1.27246
-1.27229
-1.27287
-1.27373
-1.27451
-1.27495
-26.6301
-26.6489
-26.662
-26.6122
-26.3958
-25.8507
-24.7768
-23.0462
-20.8139
-18.5452
-16.4109
-14.432
-12.7169
-11.2151
-9.84947
-8.66007
-7.60944
-6.68281
-5.97907
-5.48068
-5.08449
-4.72283
-4.40924
-4.13049
-3.87203
-3.65623
-3.47566
-3.31682
-3.18772
-3.06792
-2.92321
-2.74707
-2.57259
-2.4079
-2.25085
-2.11277
-1.98831
-1.8699
-1.76404
-1.66786
-1.58109
-1.51687
-1.47432
-1.44211
-1.41257
-1.38715
-1.36453
-1.34331
-1.32617
-1.31267
-1.30164
-1.29413
-1.28877
-1.28284
-1.27569
-1.26973
-1.26577
-1.26352
-1.26305
-1.26392
-1.26541
-1.26701
-1.26831
-1.26902
-27.0585
-27.109
-27.1863
-27.2321
-27.1315
-26.6873
-25.624
-23.7201
-21.1534
-18.6489
-16.3632
-14.2416
-12.4715
-10.9491
-9.53675
-8.33444
-7.26879
-6.29782
-5.60743
-5.17085
-4.8293
-4.48998
-4.20244
-3.94674
-3.69661
-3.49876
-3.33906
-3.19475
-3.09054
-2.99858
-2.86582
-2.68176
-2.50494
-2.34153
-2.1819
-2.04771
-1.92832
-1.80989
-1.70659
-1.61167
-1.52189
-1.46099
-1.42723
-1.40288
-1.37732
-1.35595
-1.33675
-1.31708
-1.3023
-1.29134
-1.28205
-1.27711
-1.27462
-1.27037
-1.26334
-1.25781
-1.2547
-1.25325
-1.2538
-1.25578
-1.25824
-1.26062
-1.26248
-1.26346
-27.4599
-27.5447
-27.6931
-27.8491
-27.892
-27.5896
-26.5724
-24.4735
-21.4682
-18.7122
-16.2904
-14.0018
-12.1961
-10.6764
-9.2031
-8.00041
-6.9272
-5.88349
-5.21024
-4.85881
-4.58474
-4.25877
-3.9994
-3.77004
-3.52024
-3.34188
-3.20587
-3.07143
-2.9956
-2.93895
-2.81935
-2.61814
-2.43806
-2.27741
-2.11179
-1.98306
-1.87076
-1.75002
-1.65027
-1.55706
-1.46052
-1.40307
-1.38062
-1.36554
-1.34292
-1.32574
-1.31024
-1.29118
-1.27882
-1.27065
-1.26259
-1.26043
-1.26138
-1.25889
-1.25127
-1.246
-1.24383
-1.24309
-1.24471
-1.24791
-1.25139
-1.25459
-1.25702
-1.25831
-27.831
-27.9518
-28.1767
-28.4564
-28.6714
-28.5602
-27.6422
-25.3301
-21.7324
-18.7226
-16.2005
-13.7
-11.8895
-10.4082
-8.84335
-7.66137
-6.59579
-5.43157
-4.78199
-4.54861
-4.3585
-4.02767
-3.80069
-3.60405
-3.34087
-3.18546
-3.07819
-2.94472
-2.90194
-2.89137
-2.78714
-2.55416
-2.37118
-2.2168
-2.03921
-1.91876
-1.81696
-1.68961
-1.59541
-1.5053
-1.39596
-1.34243
-1.33493
-1.33094
-1.3092
-1.29659
-1.28542
-1.2654
-1.25574
-1.25084
-1.2431
-1.24399
-1.24922
-1.24867
-1.23937
-1.23423
-1.23321
-1.23301
-1.23577
-1.24032
-1.24486
-1.24891
-1.25196
-1.25357
-28.1693
-28.3269
-28.6316
-29.0463
-29.462
-29.5997
-28.857
-26.3258
-21.905
-18.6656
-16.111
-13.3166
-11.551
-10.1628
-8.44679
-7.32099
-6.29201
-4.92874
-4.31519
-4.24586
-4.16129
-3.79246
-3.60647
-3.45435
-3.15457
-3.02924
-2.95961
-2.81112
-2.80797
-2.85872
-2.77399
-2.48618
-2.3033
-2.16198
-1.96198
-1.85469
-1.76898
-1.62731
-1.54237
-1.45841
-1.32656
-1.2781
-1.29073
-1.30028
-1.27571
-1.26852
-1.26288
-1.23934
-1.233
-1.23227
-1.22327
-1.22768
-1.23837
-1.24009
-1.22742
-1.2224
-1.22293
-1.22296
-1.22695
-1.23306
-1.23868
-1.24362
-1.24731
-1.24925
-28.4729
-28.6671
-29.053
-29.6105
-30.2534
-30.7051
-30.2438
-27.515
-21.9226
-18.5251
-16.0547
-12.821
-11.1796
-9.96878
-7.99363
-6.98317
-6.04297
-4.35384
-3.80034
-3.95808
-4.00819
-3.5447
-3.41648
-3.32959
-2.95458
-2.87282
-2.856
-2.66517
-2.71136
-2.84452
-2.78685
-2.4081
-2.23317
-2.11685
-1.87652
-1.7907
-1.73007
-1.56063
-1.49152
-1.41952
-1.24974
-1.2089
-1.24884
-1.27521
-1.24151
-1.24148
-1.24356
-1.21225
-1.21055
-1.21554
-1.20262
-1.21129
-1.22912
-1.23369
-1.21503
-1.21039
-1.21315
-1.21284
-1.21825
-1.22617
-1.23284
-1.23871
-1.24308
-1.24536
-28.7409
-28.9703
-29.4362
-30.1404
-31.0327
-31.8678
-31.8311
-28.9804
-21.6887
-18.284
-16.0875
-12.1645
-10.7747
-9.87025
-7.44987
-6.65192
-5.89014
-3.67388
-3.22617
-3.69504
-3.92049
-3.26949
-3.23004
-3.24318
-2.72978
-2.71576
-2.77675
-2.49846
-2.60901
-2.85286
-2.83593
-2.31016
-2.15938
-2.08783
-1.77711
-1.7266
-1.70528
-1.4854
-1.44321
-1.39348
-1.16151
-1.13343
-1.21031
-1.25812
-1.20496
-1.21537
-1.22889
-1.18296
-1.1883
-1.20159
-1.18039
-1.19456
-1.22179
-1.23022
-1.20157
-1.19805
-1.20414
-1.2025
-1.20964
-1.21972
-1.22735
-1.23418
-1.23927
-1.24191
-28.973
-29.2353
-29.7776
-30.6274
-31.7842
-33.0721
-33.6454
-30.8472
-21.0586
-17.9264
-16.2986
-11.2715
-10.3363
-9.93423
-6.76016
-6.33124
-5.89584
-2.83834
-2.58064
-3.4689
-3.92834
-2.94242
-3.04622
-3.21556
-2.46258
-2.55765
-2.73638
-2.29833
-2.49715
-2.88826
-2.93618
-2.17733
-2.08048
-2.08505
-1.65483
-1.66223
-1.70232
-1.3949
-1.3978
-1.38762
-1.05577
-1.05021
-1.1765
-1.25233
-1.16338
-1.19008
-1.22108
-1.1496
-1.16619
-1.19184
-1.15544
-1.17719
-1.21676
-1.23078
-1.18608
-1.18523
-1.19633
-1.19169
-1.20108
-1.2138
-1.22218
-1.23002
-1.23588
-1.23889
-29.1696
-29.4617
-30.0744
-31.0638
-32.4907
-34.2934
-35.7056
-33.3021
-19.8193
-17.4394
-16.825
-10.0257
-9.86558
-10.2603
-5.83799
-6.02511
-6.15192
-1.77113
-1.85294
-3.29369
-4.07423
-2.52549
-2.86412
-3.27735
-2.12593
-2.39838
-2.75672
-2.04598
-2.37171
-2.95513
-3.10934
-1.98702
-1.99526
-2.12394
-1.49602
-1.59752
-1.73273
-1.27867
-1.35564
-1.41278
-0.923414
-0.957931
-1.149
-1.26259
-1.11256
-1.16549
-1.22341
-1.10927
-1.14417
-1.18845
-1.12601
-1.15887
-1.21441
-1.23695
-1.16706
-1.17182
-1.19035
-1.18001
-1.19258
-1.20856
-1.21729
-1.22625
-1.23291
-1.23629
-29.3319
-29.6498
-30.3251
-31.4426
-33.1335
-35.4967
-38.0126
-36.6203
-17.6624
-16.8179
-17.8688
-8.25303
-9.36634
-10.9934
-4.55278
-5.73758
-6.79115
-0.359691
-1.03717
-3.18408
-4.41777
-1.96173
-2.6834
-3.47334
-1.67941
-2.23846
-2.86967
-1.71392
-2.22909
-3.05689
-3.38676
-1.70611
-1.90314
-2.22731
-1.28032
-1.53265
-1.81337
-1.12108
-1.31705
-1.48465
-0.75096
-0.855874
-1.1295
-1.29548
-1.04622
-1.14153
-1.2407
-1.05766
-1.12228
-1.19455
-1.08953
-1.13934
-1.21506
-1.25095
-1.14235
-1.15778
-1.18716
-1.16684
-1.18415
-1.20418
-1.21259
-1.22283
-1.23035
-1.2341
-29.4613
-29.8009
-30.5292
-31.7586
-33.6945
-36.6362
-40.5353
-41.2005
-14.1494
-16.0703
-19.7203
-5.69867
-8.8472
-12.3403
-2.71336
-5.4731
-8.00161
1.55948
-0.138214
-3.1527
-5.04191
-1.16832
-2.50502
-3.86763
-1.06406
-2.07965
-3.12073
-1.26255
-2.06748
-3.19441
-3.81314
-1.28719
-1.80476
-2.42788
-0.978039
-1.4683
-1.96838
-0.899289
-1.28243
-1.62554
-0.518874
-0.744627
-1.1195
-1.36021
-0.955206
-1.11829
-1.27983
-0.988485
-1.10071
-1.21456
-1.04223
-1.11857
-1.21889
-1.2759
-1.10878
-1.1432
-1.18807
-1.15121
-1.17584
-1.2009
-1.20794
-1.21976
-1.22819
-1.23228
-29.56
-29.9167
-30.6873
-32.0088
-34.157
-37.6566
-43.189
-47.6112
-8.66763
-15.2268
-22.7846
-1.99832
-8.32484
-14.589
-0.0473117
-5.2371
-10.0446
4.21957
0.819436
-3.2057
-6.0611
-0.0281091
-2.33241
-4.54982
-0.195928
-1.92579
-3.57313
-0.635832
-1.88907
-3.36358
-4.45133
-0.663687
-1.7028
-2.77148
-0.546885
-1.40599
-2.23153
-0.580855
-1.25225
-1.86645
-0.199318
-0.62713
-1.11983
-1.46942
-0.826571
-1.09616
-1.3504
-0.892766
-1.07993
-1.25463
-0.97877
-1.0969
-1.22573
-1.31615
-1.0619
-1.12845
-1.19489
-1.13173
-1.16781
-1.19905
-1.2031
-1.21704
-1.22638
-1.23082
-29.6303
-29.9995
-30.8013
-32.1922
-34.5083
-38.4966
-45.8064
-56.6476
-0.376339
-14.3509
-27.6136
3.35685
-7.8287
-18.1334
3.82403
-5.03702
-13.2763
7.94703
1.77909
-3.33566
-7.63156
1.62075
-2.17298
-5.6425
1.04181
-1.78402
-4.31295
0.244281
-1.70321
-3.55183
-5.38838
0.255949
-1.60312
-3.3207
0.0720152
-1.34857
-2.64909
-0.120782
-1.22722
-2.24969
0.246657
-0.510167
-1.12981
-1.64037
-0.64242
-1.07597
-1.46556
-0.758008
-1.06084
-1.32311
-0.891646
-1.07536
-1.23484
-1.37771
-0.995522
-1.11426
-1.21002
-1.10638
-1.16038
-1.19902
-1.19773
-1.21466
-1.2249
-1.22964
-29.6746
-30.0518
-30.8739
-32.3105
-34.7413
-39.0962
-48.0993
-69.4026
11.8586
-13.5542
-34.9426
11.0617
-7.40728
-23.5005
9.41487
-4.88375
-18.1727
13.1904
2.63479
-3.51146
-9.96407
3.99705
-2.04015
-7.30985
2.80826
-1.66642
-5.45481
1.48461
-1.53095
-3.73333
-6.74307
1.59529
-1.51622
-4.15914
0.958863
-1.30092
-3.28308
0.541949
-1.20842
-2.83186
0.872551
-0.406388
-1.14616
-1.8963
-0.378554
-1.05929
-1.64289
-0.567167
-1.04497
-1.43105
-0.770556
-1.05612
-1.24454
-1.46866
-0.901249
-1.10195
-1.23659
-1.07237
-1.15407
-1.20129
-1.19134
-1.21264
-1.22366
-1.22869
-29.6957
-30.0768
-30.9086
-32.3674
-34.8554
-39.4081
-49.6102
-87.3504
29.5403
-13.0146
-45.7301
22.0444
-7.13633
-31.3812
17.4084
-4.79373
-25.3592
20.5546
3.20908
-3.66433
-13.3395
7.39064
-1.95588
-9.76728
5.31557
-1.59222
-7.14842
3.22877
-1.41108
-3.86267
-8.67494
3.51798
-1.45919
-5.39623
2.22045
-1.27094
-4.21514
1.48812
-1.19772
-3.68753
1.75021
-0.337258
-1.16169
-2.26849
-0.00331039
-1.0491
-1.90586
-0.298034
-1.03538
-1.59343
-0.602311
-1.04369
-1.25249
-1.60062
-0.76881
-1.09465
-1.27956
-1.02698
-1.15089
-1.20762
-1.18449
-1.21232
-1.22383
-1.22915
)
;

boundaryField
{
    left
    {
        type            calculated;
        value           nonuniform List<scalar> 
32
(
-20.1541
-20.2324
-20.3814
-20.5925
-20.8585
-21.1728
-21.5293
-21.9223
-22.3461
-22.7953
-23.2642
-23.7473
-24.239
-24.7335
-25.2252
-25.7087
-26.1787
-26.6301
-27.0585
-27.4599
-27.831
-28.1693
-28.4729
-28.7409
-28.973
-29.1696
-29.3319
-29.4613
-29.56
-29.6303
-29.6746
-29.6957
)
;
    }
    right
    {
        type            calculated;
        value           nonuniform List<scalar> 
32
(
-1.37092
-1.36936
-1.36644
-1.36236
-1.35732
-1.35152
-1.34513
-1.3383
-1.33116
-1.32384
-1.31645
-1.30908
-1.30181
-1.29471
-1.28783
-1.28123
-1.27495
-1.26902
-1.26346
-1.25831
-1.25357
-1.24925
-1.24536
-1.24191
-1.23889
-1.23629
-1.2341
-1.23228
-1.23082
-1.22964
-1.22869
-1.22915
)
;
    }
    interface
    {
        type            calculated;
        value           nonuniform List<scalar> 
64
(
-29.7007
-30.0827
-30.9169
-32.3811
-34.8832
-39.4875
-50.1007
-97.8334
39.9565
-12.8362
-52.1237
28.4875
-7.04992
-36.0475
22.1029
-4.76701
-29.6133
24.8536
3.39844
-3.72357
-15.3279
9.3829
-1.92926
-11.224
6.78461
-1.5689
-8.15429
4.24733
-1.37042
-3.90717
-9.80796
4.64839
-1.44077
-6.12989
2.96011
-1.26159
-4.76724
2.04351
-1.19472
-4.19432
2.26223
-0.314702
-1.16807
-2.48815
0.216606
-1.04613
-2.06213
-0.140791
-1.03268
-1.6904
-0.504588
-1.03997
-1.25572
-1.67859
-0.691687
-1.09283
-1.30593
-1.00117
-1.15051
-1.21216
-1.18117
-1.2129
-1.22458
-1.23003
)
;
    }
    bottom
    {
        type            calculated;
        value           nonuniform List<scalar> 
64
(
-20.1336
-20.037
-19.8447
-19.5592
-19.1839
-18.7239
-18.186
-17.5787
-16.9118
-16.1965
-15.4447
-14.6684
-13.8796
-13.0893
-12.3077
-11.5433
-10.8034
-10.0936
-9.41813
-8.77973
-8.17991
-7.61915
-7.09701
-6.6124
-6.16375
-5.74911
-5.36636
-5.01327
-4.68763
-4.38729
-4.11022
-3.85458
-3.6187
-3.4011
-3.20047
-3.01565
-2.84562
-2.68947
-2.54635
-2.41548
-2.29612
-2.18755
-2.08907
-2
-1.91966
-1.84741
-1.7826
-1.72464
-1.67296
-1.627
-1.58627
-1.55031
-1.51868
-1.49101
-1.46694
-1.44615
-1.42838
-1.41336
-1.40089
-1.39078
-1.38288
-1.37706
-1.37323
-1.37133
)
;
    }
    defaultFaces
    {
        type            empty;
    }
}


// ************************************************************************* //
