/*--------------------------------*- C++ -*----------------------------------*\
| =========                 |                                                 |
| \\      /  F ield         | OpenFOAM: The Open Source CFD Toolbox           |
|  \\    /   O peration     | Version:  5.x                                   |
|   \\  /    A nd           | Web:      www.OpenFOAM.org                      |
|    \\/     M anipulation  |                                                 |
\*---------------------------------------------------------------------------*/
FoamFile
{
    version     2.0;
    format      ascii;
    class       volScalarField;
    location    "11.4";
    object      T;
}
// * * * * * * * * * * * * * * * * * * * * * * * * * * * * * * * * * * * * * //

dimensions      [0 0 0 1 0 0 0];

internalField   nonuniform List<scalar> 
2048
(
9.85535
9.85605
9.85743
9.85948
9.86218
9.86548
9.86935
9.87371
9.8785
9.88364
9.88904
9.89462
9.90029
9.90596
9.91158
9.91707
9.92239
9.92748
9.93234
9.93692
9.94123
9.94526
9.94901
9.95249
9.95572
9.9587
9.96145
9.96398
9.96632
9.96848
9.97047
9.97231
9.974
9.97557
9.97701
9.97833
9.97956
9.98068
9.98171
9.98265
9.9835
9.98428
9.98499
9.98563
9.98621
9.98673
9.98719
9.98761
9.98798
9.98831
9.9886
9.98886
9.98909
9.98929
9.98946
9.98961
9.98974
9.98985
9.98994
9.99001
9.99007
9.99011
9.99013
9.99015
9.57182
9.57387
9.57797
9.58406
9.59206
9.60187
9.61334
9.6263
9.64053
9.65579
9.67183
9.68839
9.70521
9.72205
9.73871
9.75498
9.77073
9.78583
9.80019
9.81376
9.8265
9.83841
9.84949
9.85978
9.86929
9.87809
9.8862
9.89369
9.90059
9.90696
9.91283
9.91825
9.92325
9.92787
9.93212
9.93604
9.93965
9.94296
9.94599
9.94877
9.9513
9.9536
9.95569
9.95757
9.95928
9.96081
9.96218
9.96341
9.9645
9.96548
9.96634
9.9671
9.96777
9.96835
9.96886
9.9693
9.96968
9.97
9.97026
9.97048
9.97064
9.97077
9.97085
9.97089
9.29912
9.3025
9.30923
9.31923
9.33239
9.34852
9.36741
9.38875
9.41218
9.43732
9.46373
9.49098
9.51865
9.54633
9.57368
9.60038
9.6262
9.65093
9.67443
9.69661
9.71742
9.73685
9.75493
9.77169
9.78719
9.80151
9.81473
9.82691
9.83814
9.8485
9.85806
9.86688
9.87501
9.88252
9.88945
9.89583
9.9017
9.90709
9.91204
9.91655
9.92067
9.92442
9.92782
9.93089
9.93365
9.93614
9.93837
9.94037
9.94214
9.94372
9.94512
9.94636
9.94744
9.94839
9.94922
9.94993
9.95054
9.95106
9.95149
9.95183
9.9521
9.9523
9.95243
9.9525
9.03601
9.04068
9.04997
9.0638
9.08201
9.10436
9.13054
9.16013
9.19265
9.22752
9.26415
9.30192
9.34023
9.37852
9.41631
9.45316
9.48874
9.52277
9.55508
9.58552
9.61406
9.64068
9.66541
9.68833
9.70951
9.72906
9.74709
9.76371
9.77903
9.79315
9.80619
9.81822
9.82932
9.83957
9.84902
9.85774
9.86575
9.87311
9.87986
9.88603
9.89165
9.89676
9.90139
9.90557
9.90934
9.91273
9.91577
9.91848
9.9209
9.92305
9.92495
9.92663
9.9281
9.92939
9.93052
9.93148
9.93231
9.93301
9.93359
9.93406
9.93442
9.93469
9.93487
9.93496
8.78145
8.78738
8.79919
8.81678
8.83996
8.86845
8.90186
8.93967
8.98122
9.02579
9.07258
9.12078
9.16962
9.21838
9.26641
9.31319
9.35827
9.40132
9.44212
9.48051
9.51644
9.5499
9.58096
9.6097
9.63625
9.66073
9.6833
9.70409
9.72325
9.74092
9.75722
9.77227
9.78617
9.799
9.81084
9.82175
9.83178
9.84101
9.84946
9.85718
9.86421
9.87061
9.8764
9.88163
9.88634
9.89057
9.89436
9.89774
9.90076
9.90343
9.9058
9.90789
9.90973
9.91133
9.91273
9.91393
9.91496
9.91582
9.91654
9.91713
9.91758
9.91792
9.91814
9.91824
8.5346
8.54176
8.55603
8.57732
8.60542
8.64002
8.68065
8.72667
8.7773
8.83159
8.88857
8.9472
9.00653
9.06565
9.1238
9.18032
9.23468
9.28649
9.33549
9.38151
9.4245
9.46449
9.50154
9.53579
9.56739
9.5965
9.62332
9.64802
9.67078
9.69176
9.71113
9.72901
9.74552
9.76077
9.77485
9.78783
9.79978
9.81075
9.8208
9.82999
9.83835
9.84595
9.85283
9.85904
9.86462
9.86963
9.87412
9.87812
9.88169
9.88485
9.88765
9.89012
9.89229
9.89418
9.89583
9.89725
9.89846
9.89948
9.90033
9.90101
9.90155
9.90194
9.9022
9.90232
8.29476
8.30312
8.31981
8.34473
8.3777
8.41838
8.46626
8.52057
8.58035
8.64448
8.71172
8.78085
8.85067
8.92013
8.98829
9.05439
9.11783
9.17817
9.23509
9.28845
9.33819
9.38436
9.42708
9.46651
9.50285
9.5363
9.56709
9.59543
9.62154
9.64561
9.66783
9.68835
9.70732
9.72484
9.74103
9.75595
9.76969
9.7823
9.79386
9.80442
9.81403
9.82275
9.83064
9.83776
9.84416
9.84989
9.85502
9.8596
9.86367
9.86728
9.87047
9.87329
9.87576
9.87791
9.87979
9.8814
9.88278
9.88394
9.8849
9.88568
9.88629
9.88673
9.88702
9.88717
8.06137
8.07089
8.08992
8.11841
8.1562
8.20297
8.25813
8.32082
8.38991
8.46403
8.5417
8.62143
8.70181
8.78159
8.8597
8.93527
9.00761
9.07623
9.14081
9.2012
9.25737
9.3094
9.35747
9.40176
9.44253
9.48002
9.5145
9.54622
9.57544
9.60237
9.62724
9.65023
9.67148
9.69113
9.70929
9.72603
9.74145
9.75562
9.76859
9.78043
9.7912
9.80098
9.8098
9.81776
9.8249
9.83131
9.83703
9.84213
9.84666
9.85068
9.85423
9.85736
9.8601
9.8625
9.86458
9.86637
9.86789
9.86918
9.87025
9.87111
9.87178
9.87227
9.87259
9.87275
7.83397
7.84461
7.86591
7.89788
7.94043
7.99326
8.05577
8.12699
8.20558
8.28991
8.37821
8.46869
8.55972
8.64985
8.73786
8.82278
8.90385
8.98053
9.05251
9.11963
9.18192
9.23949
9.29256
9.3414
9.38629
9.42754
9.46543
9.50028
9.53236
9.56194
9.58927
9.61454
9.63793
9.65956
9.67956
9.69802
9.71501
9.73062
9.74491
9.75796
9.76982
9.78057
9.79026
9.79899
9.80683
9.81384
9.8201
9.82567
9.83062
9.83501
9.83889
9.8423
9.84529
9.8479
9.85016
9.85211
9.85377
9.85517
9.85632
9.85725
9.85798
9.85851
9.85886
9.85903
7.61221
7.62391
7.64739
7.68272
7.72993
7.7888
7.85873
7.93865
8.02699
8.1218
8.22097
8.32241
8.42421
8.52473
8.6226
8.71676
8.80639
8.89093
8.97004
9.0436
9.11167
9.17444
9.23221
9.28528
9.33399
9.3787
9.41974
9.45746
9.49217
9.52419
9.55378
9.58117
9.60654
9.63003
9.65176
9.67181
9.69029
9.70725
9.72278
9.73695
9.74982
9.76147
9.77197
9.78141
9.78987
9.79743
9.80418
9.81019
9.81552
9.82024
9.8244
9.82807
9.83127
9.83407
9.8365
9.83859
9.84037
9.84186
9.8431
9.84409
9.84487
9.84543
9.8458
9.84599
7.39583
7.40851
7.43403
7.47258
7.52433
7.5892
7.66662
7.75544
7.85382
7.95944
8.06978
8.1824
8.29511
8.40606
8.51376
8.61706
8.71509
8.80725
8.89322
8.97291
9.04645
9.1141
9.17623
9.23322
9.28546
9.33336
9.37728
9.41762
9.45474
9.48899
9.52067
9.55002
9.57723
9.60245
9.62579
9.64734
9.6672
9.68544
9.70213
9.71734
9.73115
9.74364
9.75488
9.76496
9.77399
9.78205
9.78924
9.79563
9.8013
9.80632
9.81074
9.81463
9.81803
9.82099
9.82357
9.82578
9.82766
9.82924
9.83054
9.83159
9.8324
9.833
9.83339
9.83358
7.18462
7.1982
7.22559
7.26717
7.32329
7.39407
7.47906
7.577
7.68577
7.80257
7.92443
8.04848
8.17224
8.29367
8.41117
8.5235
8.62976
8.72933
8.82189
8.9074
8.98607
9.05827
9.12444
9.18504
9.24053
9.29133
9.33789
9.38062
9.41992
9.4562
9.48978
9.52094
9.54987
9.5767
9.60156
9.62452
9.64567
9.6651
9.68287
9.69907
9.71375
9.727
9.73892
9.74959
9.75913
9.76764
9.77522
9.78196
9.78793
9.79321
9.79785
9.80194
9.80551
9.80862
9.81132
9.81364
9.81561
9.81727
9.81863
9.81972
9.82056
9.82118
9.82158
9.82178
6.97844
6.99281
7.02188
7.06624
7.12651
7.20309
7.2957
7.40303
7.52258
7.65101
7.78475
7.92051
8.05547
8.18742
8.31466
8.4359
8.55022
8.65699
8.75586
8.84687
8.93033
9.00674
9.07664
9.14056
9.19901
9.25247
9.3014
9.34629
9.38757
9.42568
9.461
9.49383
9.52435
9.5527
9.57897
9.60325
9.62562
9.64616
9.66495
9.68206
9.69755
9.71151
9.72404
9.73524
9.74524
9.75415
9.76208
9.76912
9.77536
9.78086
9.78571
9.78996
9.79368
9.79692
9.79973
9.80214
9.80419
9.80591
9.80731
9.80844
9.80931
9.80995
9.81036
9.81056
6.77722
6.79225
6.82276
6.86959
6.93372
7.01592
7.11619
7.2332
7.36402
7.50457
7.65062
7.79836
7.94466
8.08714
8.22406
8.3541
8.47631
8.59004
8.69495
8.79112
8.87902
8.9593
9.03261
9.09956
9.16071
9.21658
9.26766
9.31448
9.35752
9.39728
9.43419
9.46856
9.50057
9.53034
9.55794
9.58345
9.60696
9.62855
9.64828
9.66624
9.6825
9.69711
9.71019
9.72186
9.73226
9.74152
9.74976
9.75707
9.76354
9.76925
9.77427
9.77867
9.78251
9.78586
9.78876
9.79125
9.79337
9.79513
9.79658
9.79773
9.79862
9.79927
9.79969
9.7999
6.58091
6.59645
6.62813
6.67707
6.7447
6.83227
6.9402
7.06723
7.20988
7.36312
7.52191
7.68193
7.83969
7.99269
8.13921
8.2779
8.40781
8.5283
8.63896
8.73994
8.83192
8.91575
8.99216
9.06186
9.12546
9.18349
9.2365
9.28503
9.32963
9.37086
9.4092
9.445
9.47841
9.50951
9.53836
9.56504
9.58961
9.61218
9.63281
9.65157
9.66852
9.68373
9.6973
9.70939
9.72015
9.72972
9.73822
9.74577
9.75244
9.75832
9.76349
9.76801
9.77195
9.77539
9.77837
9.78093
9.7831
9.78491
9.78639
9.78756
9.78847
9.78912
9.78954
9.78975
6.38951
6.4054
6.43793
6.48856
6.55922
6.65183
6.7674
6.90482
7.05998
7.22654
7.39854
7.57112
7.74042
7.90391
8.05992
8.2071
8.34455
8.47159
8.5877
8.69313
8.78882
8.87585
8.95507
9.02725
9.09307
9.15305
9.20776
9.25781
9.30376
9.34627
9.38591
9.42304
9.45776
9.49012
9.52016
9.54793
9.5735
9.59699
9.61845
9.63796
9.65557
9.67133
9.68534
9.69778
9.70885
9.71868
9.72742
9.73517
9.74201
9.74804
9.75333
9.75795
9.76198
9.7655
9.76855
9.77116
9.77338
9.77522
9.77672
9.77791
9.77881
9.77947
9.77989
9.7801
6.20305
6.2191
6.25213
6.30396
6.37711
6.47431
6.59743
6.74569
6.91416
7.09476
7.28043
7.46587
7.64676
7.82063
7.98601
8.1415
8.2863
8.41972
8.541
8.65047
8.74947
8.83938
8.92112
8.99554
9.06335
9.12507
9.18128
9.23265
9.27978
9.32338
9.36418
9.40256
9.43853
9.47208
9.50325
9.53204
9.55855
9.5829
9.60515
9.62536
9.64359
9.65984
9.67423
9.68698
9.6983
9.70837
9.7173
9.72523
9.73222
9.73837
9.74376
9.74846
9.75256
9.75613
9.75924
9.76191
9.76416
9.76603
9.76754
9.76873
9.76964
9.77029
9.77071
9.77091
6.02157
6.03759
6.07074
6.12321
6.1982
6.29944
6.42992
6.58951
6.77232
6.96773
7.16754
7.36612
7.55858
7.74266
7.91728
8.08089
8.23285
8.37252
8.49868
8.61175
8.71364
8.80612
8.8901
8.96651
9.03614
9.0994
9.15693
9.20944
9.25753
9.30204
9.34388
9.38346
9.42062
9.4553
9.48755
9.5173
9.54468
9.56984
9.59283
9.61371
9.63253
9.64923
9.66394
9.67693
9.68848
9.69873
9.70783
9.71591
9.72303
9.72928
9.73475
9.73951
9.74365
9.74727
9.75043
9.75314
9.75543
9.75731
9.75883
9.76002
9.76092
9.76156
9.76197
9.76217
5.84513
5.86093
5.89379
5.9463
6.02237
6.12692
6.26447
6.43597
6.63441
6.84547
7.05982
7.27183
7.47577
7.66982
7.85356
8.02504
8.18395
8.32983
8.46057
8.57675
8.68108
8.77585
8.86182
8.93998
9.01127
9.07589
9.13454
9.18805
9.23691
9.28213
9.32487
9.36562
9.40394
9.4397
9.47298
9.50363
9.53181
9.55775
9.58142
9.60293
9.62233
9.63944
9.65441
9.66759
9.67931
9.68971
9.69895
9.70717
9.71439
9.72072
9.72626
9.73106
9.73523
9.73889
9.74209
9.74484
9.74714
9.74904
9.75056
9.75174
9.75263
9.75325
9.75366
9.75385
5.67379
5.68917
5.72133
5.77323
5.84953
5.95649
6.10065
6.28469
6.50044
6.72801
6.95718
7.18301
7.39822
7.60187
7.79464
7.9737
8.13936
8.2915
8.42654
8.54524
8.65152
8.74837
8.83605
8.91575
8.9886
9.0544
9.11398
9.16836
9.21779
9.26349
9.30703
9.34897
9.38841
9.42519
9.45949
9.49096
9.51988
9.54657
9.57088
9.59298
9.61295
9.63044
9.64558
9.65889
9.67076
9.68129
9.69064
9.69897
9.70628
9.71267
9.71826
9.72309
9.72727
9.73094
9.73419
9.73697
9.73929
9.7412
9.74271
9.74388
9.74474
9.74535
9.74574
9.74593
5.50762
5.52238
5.55343
5.60404
5.67961
5.78789
5.93796
6.13523
6.37054
6.61545
6.85955
7.09967
7.3258
7.53854
7.74038
7.92664
8.09875
8.25744
8.39646
8.51698
8.62469
8.72347
8.81262
8.89361
8.96797
9.03479
9.09511
9.15027
9.20007
9.24599
9.29021
9.33343
9.37396
9.4117
9.44701
9.47924
9.50881
9.53623
9.56113
9.58378
9.60437
9.62219
9.63743
9.6508
9.6628
9.67341
9.68284
9.69129
9.69867
9.7051
9.71074
9.71557
9.71972
9.72341
9.72671
9.72952
9.73185
9.73376
9.73526
9.7364
9.73724
9.73783
9.7382
9.73838
5.34667
5.36064
5.39017
5.43879
5.51259
5.62089
5.77586
5.98705
6.245
6.50792
6.76673
7.02192
7.25841
7.47949
7.69064
7.8836
8.06178
8.22759
8.37027
8.49173
8.60026
8.70099
8.79135
8.87336
8.9493
9.01693
9.07778
9.13372
9.18366
9.22949
9.27426
9.31894
9.36052
9.39913
9.43551
9.4684
9.49851
9.5267
9.55212
9.57528
9.59654
9.61465
9.62989
9.64324
9.65537
9.66604
9.67553
9.68409
9.69152
9.69797
9.70365
9.70846
9.71258
9.71626
9.71962
9.72246
9.7248
9.7267
9.72818
9.72929
9.73011
9.73067
9.73102
9.73119
5.191
5.204
5.23163
5.2776
5.34852
5.45529
5.61373
5.83943
6.12432
6.40561
6.67843
6.94992
7.19591
7.42427
7.64537
7.8443
8.02799
8.20197
8.3479
8.46921
8.57789
8.68081
8.77206
8.85477
8.93249
9.00072
9.06183
9.11866
9.16849
9.21385
9.25903
9.30547
9.34806
9.38739
9.42495
9.45838
9.48892
9.51793
9.54379
9.56738
9.58944
9.60781
9.62291
9.63618
9.64845
9.65915
9.66865
9.67735
9.6848
9.69125
9.69698
9.70176
9.7058
9.70947
9.71291
9.71578
9.7181
9.72001
9.72147
9.72254
9.72332
9.72385
9.72418
9.72434
5.04063
5.05252
5.07791
5.12056
5.18747
5.29096
5.45093
5.69143
6.00933
6.30876
6.59414
6.88403
7.13819
7.37231
7.60465
7.80849
7.99679
8.18071
8.32935
8.44914
8.55716
8.66286
8.7546
8.83756
8.91751
8.98603
9.04707
9.10506
9.15451
9.19892
9.24431
9.29304
9.33651
9.37637
9.41532
9.44914
9.47991
9.50991
9.53608
9.56001
9.58309
9.60165
9.61646
9.62953
9.64202
9.6527
9.66216
9.67106
9.6785
9.6849
9.69072
9.69544
9.69937
9.703
9.70656
9.70945
9.71175
9.71366
9.71509
9.71611
9.71685
9.71735
9.71766
9.71781
4.89559
4.90623
4.92909
4.96783
5.02961
5.12784
5.28672
5.54172
5.90133
6.21763
6.51307
6.82479
7.08511
7.3228
7.56872
7.77589
7.96743
8.16412
8.31466
8.4312
8.53758
8.64717
8.73883
8.82142
8.9044
8.97278
9.03328
9.09295
9.14166
9.18453
9.22988
9.28171
9.32585
9.36592
9.40666
9.44063
9.47138
9.50265
9.52894
9.55306
9.57749
9.59615
9.61047
9.62324
9.63606
9.64665
9.65601
9.66519
9.67259
9.67889
9.68485
9.68948
9.69324
9.69682
9.70055
9.70346
9.70573
9.70765
9.70903
9.71
9.7107
9.71116
9.71144
9.71157
4.75586
4.76516
4.78523
4.81955
4.87512
4.966
5.12041
5.38844
5.80223
6.1325
6.43397
6.77312
7.03653
7.27467
7.53811
7.74622
7.93885
8.15271
8.30391
8.41502
8.51855
8.63389
8.72464
8.80595
8.89327
8.96088
9.02017
9.08244
9.12995
9.17053
9.21546
9.27162
9.31605
9.35587
9.39904
9.4328
9.46318
9.49619
9.52233
9.54638
9.5727
9.59132
9.60489
9.61722
9.63058
9.64099
9.65015
9.65975
9.66704
9.67318
9.67936
9.68387
9.6874
9.6909
9.6949
9.6978
9.69999
9.70195
9.70328
9.70418
9.70484
9.70526
9.70551
9.70563
4.62141
4.62931
4.64642
4.67587
4.72427
4.80562
4.95132
5.22897
5.71486
6.05364
6.35499
6.7304
6.99232
7.22641
7.51373
7.71922
7.90964
8.14734
8.29716
8.40022
8.49931
8.62338
8.71189
8.79062
8.88438
8.95022
9.00737
9.07369
9.11935
9.15676
9.20068
9.26301
9.30709
9.34597
9.39258
9.4256
9.4551
9.49062
9.5162
9.53978
9.5688
9.58714
9.59966
9.61137
9.6256
9.6357
9.64451
9.65476
9.66183
9.66772
9.67426
9.67859
9.68183
9.6852
9.68958
9.69244
9.69454
9.69656
9.69782
9.69864
9.69926
9.69964
9.69985
9.69995
4.49221
4.49866
4.51267
4.53695
4.57735
4.64704
4.77896
5.05965
5.64319
5.98126
6.27348
6.69872
6.95229
7.17595
7.49704
7.69462
7.87789
8.14932
8.2945
8.38639
8.47889
8.61619
8.7005
8.77476
8.87813
8.94074
8.99439
9.06699
9.10989
9.14306
9.18505
9.25625
9.29893
9.33587
9.38751
9.41901
9.44689
9.4861
9.51049
9.53304
9.56593
9.58361
9.59473
9.60558
9.62117
9.63073
9.639
9.65024
9.65695
9.66245
9.66956
9.67362
9.67648
9.67966
9.68462
9.68739
9.68932
9.69146
9.69263
9.69336
9.69394
9.69427
9.69445
9.69453
4.36818
4.37316
4.38401
4.40291
4.43469
4.4908
4.60314
4.87533
5.59282
5.91543
6.18571
6.68112
6.91622
7.1205
7.4902
7.67215
7.84101
8.16054
8.29589
8.37313
8.45604
8.61324
8.69034
8.75743
8.87516
8.93233
8.98058
9.06279
9.10157
9.12932
9.16795
9.2519
9.29156
9.32512
9.38414
9.41298
9.4382
9.48286
9.50517
9.52583
9.56431
9.58073
9.59004
9.59969
9.61738
9.62608
9.63352
9.64625
9.65237
9.65728
9.66529
9.66897
9.67135
9.67423
9.68005
9.68262
9.68432
9.68666
9.68771
9.68832
9.68887
9.68915
9.68929
9.68936
4.24924
4.25276
4.26044
4.27386
4.29662
4.3376
4.4242
4.66898
5.57134
5.85601
6.08655
6.68189
6.88381
7.05629
7.49636
7.65155
7.79556
8.18372
8.30114
8.36005
8.42918
8.61584
8.68131
8.73744
8.87642
8.92489
8.96507
9.0617
9.09435
9.11543
9.14853
9.25073
9.28493
9.31312
9.38297
9.40745
9.42858
9.48129
9.5002
9.51773
9.56426
9.57845
9.58553
9.59352
9.61436
9.62172
9.62791
9.64289
9.64807
9.65214
9.66151
9.66461
9.66641
9.66884
9.67589
9.67811
9.6795
9.68215
9.68303
9.6835
9.68405
9.68427
9.68437
9.68442
4.13528
4.13736
4.14191
4.14988
4.16346
4.18827
4.24331
4.43099
5.58899
5.80255
5.96917
6.70695
6.85464
6.97834
7.51986
7.63254
7.737
8.22262
8.30979
8.34692
8.39622
8.62581
8.67325
8.71319
8.88322
8.9183
8.94676
9.06462
9.08816
9.10141
9.12569
9.25381
9.27895
9.29908
9.38464
9.40237
9.41742
9.48187
9.49552
9.50819
9.56621
9.57671
9.58116
9.58682
9.61231
9.61762
9.62201
9.64028
9.64403
9.64689
9.65828
9.66051
9.66164
9.66341
9.67221
9.67386
9.67481
9.67796
9.67859
9.67889
9.67946
9.6796
9.67967
9.67969
4.02619
4.02688
4.02837
4.031
4.0355
4.04377
4.06283
4.14856
5.65925
5.75407
5.82463
6.76428
6.8281
6.88019
7.56657
7.61483
7.65946
8.28235
8.32088
8.33367
8.35452
8.64565
8.66596
8.68266
8.89736
8.91236
8.92419
9.07274
9.08283
9.08738
9.09798
9.26259
9.27352
9.28195
9.39008
9.39767
9.40396
9.48529
9.49111
9.4965
9.57076
9.57538
9.57692
9.57929
9.61149
9.61376
9.61558
9.63861
9.64021
9.64139
9.6557
9.65667
9.65705
9.65781
9.66911
9.66983
9.67021
9.67409
9.67436
9.67447
9.67509
9.67515
9.67517
9.67518
)
;

boundaryField
{
    left
    {
        type            zeroGradient;
    }
    right
    {
        type            zeroGradient;
    }
    interface
    {
        type            fixedValue;
        value           nonuniform List<scalar> 
64
(
3.97285
3.97285
3.97285
3.97285
3.97285
3.97285
3.97285
3.97285
5.73102
5.73102
5.73102
6.81544
6.81544
6.81544
7.60627
7.60627
7.60627
8.32699
8.32699
8.32699
8.32699
8.6625
8.6625
8.6625
8.90954
8.90954
8.90954
9.08037
9.08037
9.08037
9.08037
9.27094
9.27094
9.27094
9.3954
9.3954
9.3954
9.48897
9.48897
9.48897
9.57482
9.57482
9.57482
9.57482
9.61188
9.61188
9.61188
9.63836
9.63836
9.63836
9.6548
9.6548
9.6548
9.6548
9.66786
9.66786
9.66786
9.67229
9.67229
9.67229
9.67297
9.67297
9.67297
9.67297
)
;
    }
    bottom
    {
        type            fixedValue;
        value           uniform 10;
    }
    defaultFaces
    {
        type            empty;
    }
}


// ************************************************************************* //
