/*--------------------------------*- C++ -*----------------------------------*\
| =========                 |                                                 |
| \\      /  F ield         | OpenFOAM: The Open Source CFD Toolbox           |
|  \\    /   O peration     | Version:  5.x                                   |
|   \\  /    A nd           | Web:      www.OpenFOAM.org                      |
|    \\/     M anipulation  |                                                 |
\*---------------------------------------------------------------------------*/
FoamFile
{
    version     2.0;
    format      ascii;
    class       volScalarField;
    location    "10.1";
    object      gradTy;
}
// * * * * * * * * * * * * * * * * * * * * * * * * * * * * * * * * * * * * * //

dimensions      [0 -1 0 1 0 0 0];

internalField   nonuniform List<scalar> 
2048
(
-20.1555
-20.0586
-19.866
-19.5798
-19.2035
-18.7423
-18.2029
-17.5937
-16.9248
-16.2073
-15.4532
-14.6749
-13.8842
-13.0923
-12.3093
-11.544
-10.8036
-10.0936
-9.41834
-8.78043
-8.18141
-7.62168
-7.10081
-6.61767
-6.17064
-5.75779
-5.37696
-5.02593
-4.70248
-4.40445
-4.12983
-3.87678
-3.64363
-3.42892
-3.23134
-3.04975
-2.88313
-2.73057
-2.59122
-2.4643
-2.34906
-2.24477
-2.15072
-2.0662
-1.99052
-1.92301
-1.86301
-1.80988
-1.76302
-1.72185
-1.68584
-1.65449
-1.62733
-1.60393
-1.58391
-1.5669
-1.55259
-1.5407
-1.53098
-1.52321
-1.51721
-1.51284
-1.50998
-1.50857
-20.2338
-20.1361
-19.9417
-19.6526
-19.2722
-18.8056
-18.2593
-17.642
-16.964
-16.2368
-15.4729
-14.6849
-13.8851
-13.0851
-12.2951
-11.5239
-10.7789
-10.0656
-9.38809
-8.74898
-8.14961
-7.59025
-7.07028
-6.58844
-6.14299
-5.73187
-5.35285
-5.00362
-4.6819
-4.3855
-4.11237
-3.86066
-3.62871
-3.41505
-3.21839
-3.03763
-2.87175
-2.71987
-2.58116
-2.45484
-2.34019
-2.23647
-2.14299
-2.05903
-1.9839
-1.91692
-1.85743
-1.80479
-1.75839
-1.71766
-1.68205
-1.65107
-1.62426
-1.60118
-1.58144
-1.56469
-1.55061
-1.53892
-1.52937
-1.52175
-1.51587
-1.51158
-1.50878
-1.5074
-20.3827
-20.2834
-20.0857
-19.7913
-19.4033
-18.9263
-18.367
-17.7343
-17.0388
-16.2929
-15.51
-14.7034
-13.8862
-13.0706
-12.2672
-11.485
-10.7313
-10.0117
-9.33011
-8.68883
-8.08893
-7.53037
-7.01223
-6.53295
-6.09056
-5.68279
-5.30723
-4.96145
-4.64305
-4.34975
-4.07946
-3.83029
-3.60058
-3.38889
-3.19398
-3.01475
-2.85026
-2.69965
-2.56213
-2.43696
-2.32341
-2.22078
-2.12837
-2.04547
-1.97138
-1.90541
-1.84689
-1.79517
-1.74965
-1.70974
-1.6749
-1.64463
-1.61847
-1.59598
-1.57679
-1.56053
-1.54688
-1.53557
-1.52635
-1.519
-1.51334
-1.50922
-1.50654
-1.50522
-20.5937
-20.4925
-20.2904
-19.9888
-19.5901
-19.0986
-18.5208
-17.8658
-17.1452
-16.3723
-15.5618
-14.7284
-13.8863
-13.0484
-12.2258
-11.428
-10.6623
-9.93396
-9.24677
-8.60268
-8.00232
-7.44514
-6.92981
-6.45435
-6.01645
-5.61354
-5.24299
-4.90216
-4.5885
-4.29962
-4.03334
-3.78775
-3.56119
-3.35226
-3.15975
-2.98266
-2.82009
-2.67124
-2.53538
-2.41179
-2.29979
-2.19869
-2.10779
-2.02639
-1.95377
-1.88923
-1.83208
-1.78167
-1.73739
-1.69864
-1.66488
-1.63561
-1.61036
-1.58872
-1.57028
-1.5547
-1.54167
-1.5309
-1.52214
-1.51518
-1.50983
-1.50595
-1.50342
-1.50218
-20.8596
-20.7561
-20.5491
-20.239
-19.8275
-19.3179
-18.7167
-18.0332
-17.2799
-16.472
-15.6258
-14.7578
-13.8837
-13.0174
-12.1707
-11.3533
-10.5725
-9.83362
-9.13982
-8.49267
-7.89216
-7.33718
-6.82576
-6.35543
-5.92342
-5.52684
-5.16274
-4.82825
-4.52064
-4.23736
-3.97614
-3.73502
-3.51236
-3.3068
-3.11725
-2.94277
-2.78254
-2.63585
-2.50201
-2.38037
-2.27029
-2.17109
-2.08209
-2.00256
-1.93179
-1.86905
-1.81363
-1.76487
-1.72213
-1.68483
-1.65243
-1.62441
-1.60031
-1.57971
-1.56223
-1.5475
-1.53523
-1.52513
-1.51695
-1.51047
-1.50552
-1.50194
-1.49961
-1.49846
-21.1738
-21.0681
-20.856
-20.537
-20.1111
-19.5807
-18.9516
-18.2335
-17.4404
-16.5895
-15.6996
-14.7895
-13.8768
-12.9765
-12.1012
-11.2608
-10.4626
-9.71159
-9.0106
-8.36049
-7.76051
-7.20873
-6.70249
-6.23866
-5.81397
-5.42511
-5.06884
-4.74201
-4.44165
-4.16504
-3.90979
-3.67389
-3.45574
-3.25407
-3.06788
-2.89635
-2.73879
-2.59454
-2.46302
-2.34363
-2.23576
-2.13878
-2.052
-1.9747
-1.90612
-1.8455
-1.79212
-1.74529
-1.70438
-1.66878
-1.63796
-1.6114
-1.58865
-1.56928
-1.5529
-1.53917
-1.52779
-1.51847
-1.51097
-1.50506
-1.50057
-1.49734
-1.49525
-1.49423
-21.5302
-21.4227
-21.2062
-20.8784
-20.4375
-19.8842
-19.2232
-18.4647
-17.6244
-16.7225
-15.7809
-14.8214
-13.8636
-12.9241
-12.0162
-11.15
-10.3325
-9.56849
-8.86016
-8.20759
-7.60911
-7.06183
-6.56216
-6.10627
-5.69032
-5.31058
-4.96346
-4.64551
-4.35353
-4.08456
-3.83608
-3.60603
-3.39285
-3.19542
-3.01288
-2.84456
-2.68988
-2.5483
-2.41931
-2.30238
-2.19697
-2.10247
-2.01821
-1.94342
-1.87733
-1.81913
-1.76806
-1.72342
-1.68456
-1.65089
-1.62185
-1.59693
-1.57569
-1.55769
-1.54255
-1.52994
-1.51955
-1.51111
-1.50437
-1.49912
-1.49515
-1.49232
-1.49049
-1.48961
-21.9231
-21.8146
-21.5949
-21.2595
-20.8041
-20.2265
-19.5301
-18.7253
-17.8302
-16.8688
-15.8673
-14.8511
-13.8422
-12.8589
-11.9149
-11.0204
-10.1823
-9.40476
-8.68935
-8.03523
-7.43959
-6.89832
-6.40679
-5.96035
-5.55456
-5.18527
-4.84855
-4.54066
-4.2581
-3.99767
-3.75665
-3.53294
-3.32509
-3.13212
-2.9534
-2.78843
-2.63676
-2.49798
-2.37166
-2.25735
-2.15458
-2.06279
-1.98129
-1.9093
-1.84596
-1.79044
-1.74192
-1.69969
-1.66309
-1.63151
-1.60442
-1.5813
-1.5617
-1.5452
-1.53141
-1.52002
-1.51071
-1.50323
-1.49733
-1.49278
-1.4894
-1.487
-1.48547
-1.48474
-22.3468
-22.2385
-22.0177
-21.6771
-21.2085
-20.6063
-19.8713
-19.0143
-18.0563
-17.0265
-15.9565
-14.8762
-13.8106
-12.7792
-11.7963
-10.8717
-10.012
-9.22075
-8.49892
-7.84457
-7.25344
-6.71995
-6.23826
-5.80281
-5.40858
-5.05102
-4.72589
-4.42918
-4.15704
-3.90597
-3.67301
-3.45602
-3.25368
-3.06528
-2.89042
-2.72885
-2.58025
-2.44434
-2.32076
-2.20917
-2.10918
-2.02027
-1.94177
-1.87282
-1.8125
-1.75988
-1.71413
-1.6745
-1.64031
-1.61098
-1.58597
-1.56477
-1.54693
-1.53202
-1.51968
-1.50957
-1.50143
-1.49497
-1.48997
-1.48619
-1.48343
-1.48151
-1.4803
-1.47973
-22.7958
-22.6894
-22.4705
-22.1282
-21.6493
-21.0231
-20.247
-19.3314
-18.3016
-17.1936
-16.0461
-14.8943
-13.7665
-12.6835
-11.6593
-10.7033
-9.8214
-9.01675
-8.28957
-7.63671
-7.05213
-6.52844
-6.05839
-5.63548
-5.25414
-4.9095
-4.59709
-4.3126
-4.05186
-3.81094
-3.58656
-3.37651
-3.17973
-2.99586
-2.82482
-2.6666
-2.52108
-2.38803
-2.26723
-2.1584
-2.06127
-1.97539
-1.90009
-1.83443
-1.77736
-1.72787
-1.68507
-1.64818
-1.61654
-1.58958
-1.56676
-1.54759
-1.5316
-1.51837
-1.50753
-1.49878
-1.49184
-1.48647
-1.48241
-1.47945
-1.47735
-1.47595
-1.47508
-1.4747
-23.2646
-23.1623
-22.9492
-22.61
-22.1251
-21.4771
-20.6577
-19.6768
-18.565
-17.368
-16.1334
-14.9028
-13.708
-12.5702
-11.503
-10.5148
-9.61066
-8.79308
-8.06191
-7.41269
-6.8371
-6.32545
-5.86893
-5.46009
-5.09286
-4.76223
-4.46358
-4.19233
-3.94393
-3.71392
-3.49855
-3.29556
-3.10423
-2.92471
-2.75733
-2.60237
-2.45986
-2.32965
-2.21159
-2.10552
-2.01127
-1.92855
-1.85666
-1.79453
-1.74094
-1.69477
-1.65507
-1.62105
-1.59207
-1.56757
-1.54703
-1.52997
-1.5159
-1.50441
-1.49512
-1.48776
-1.48207
-1.47782
-1.47476
-1.47265
-1.47126
-1.47041
-1.4699
-1.46971
-23.7475
-23.6519
-23.4496
-23.1199
-22.6353
-21.969
-21.1049
-20.0512
-18.8458
-17.5475
-16.2157
-14.899
-13.6327
-12.4382
-11.327
-10.3063
-9.37989
-8.55
-7.81653
-7.17359
-6.60984
-6.11269
-5.67162
-5.27827
-4.92624
-4.61057
-4.32662
-4.06957
-3.83448
-3.61617
-3.41019
-3.21418
-3.02803
-2.85255
-2.68857
-2.53673
-2.39715
-2.26971
-2.15432
-2.05093
-1.95956
-1.88008
-1.81182
-1.75347
-1.70359
-1.66091
-1.62444
-1.59338
-1.56713
-1.54516
-1.52697
-1.51208
-1.5
-1.49029
-1.48259
-1.47664
-1.47223
-1.46913
-1.4671
-1.46589
-1.46524
-1.46497
-1.46483
-1.46485
-24.239
-24.1533
-23.9676
-23.6554
-23.1794
-22.5003
-21.591
-20.4561
-19.143
-17.7295
-16.2897
-14.8798
-13.5387
-12.2862
-11.1308
-10.0777
-9.1294
-8.28777
-7.55391
-6.92048
-6.37193
-5.89189
-5.46816
-5.09162
-4.75564
-4.45573
-4.18732
-3.94538
-3.7246
-3.51886
-3.32257
-3.13329
-2.95185
-2.77997
-2.61906
-2.47015
-2.33342
-2.20864
-2.09583
-1.99501
-1.90642
-1.83026
-1.76586
-1.71158
-1.66563
-1.62661
-1.59347
-1.56542
-1.54194
-1.52254
-1.50675
-1.49408
-1.48404
-1.47614
-1.47004
-1.4655
-1.46238
-1.46047
-1.4595
-1.45923
-1.45935
-1.45969
-1.45993
-1.46017
-24.7334
-24.6609
-24.4989
-24.2138
-23.757
-23.0734
-22.1195
-20.8934
-19.4556
-17.9111
-16.3521
-14.8422
-13.4237
-12.1134
-10.9142
-9.82961
-8.85972
-8.00659
-7.27441
-6.65444
-6.12503
-5.66479
-5.26023
-4.90163
-4.5823
-4.29874
-4.04661
-3.82061
-3.61527
-3.4231
-3.23679
-3.05369
-2.87628
-2.70746
-2.54919
-2.40304
-2.26909
-2.14686
-2.03649
-1.93808
-1.85208
-1.77928
-1.71904
-1.66915
-1.62735
-1.59212
-1.56239
-1.53737
-1.51669
-1.49988
-1.48651
-1.47611
-1.46816
-1.4621
-1.45757
-1.45444
-1.45261
-1.4519
-1.45202
-1.45273
-1.45365
-1.45463
-1.45527
-1.45573
-25.225
-25.1696
-25.0388
-24.7922
-24.3679
-23.691
-22.6951
-21.3663
-19.7821
-18.0886
-16.3992
-14.7827
-13.286
-11.9194
-10.6776
-9.56268
-8.57168
-7.70647
-6.97817
-6.37663
-5.87101
-5.43321
-5.04949
-4.70978
-4.40727
-4.14047
-3.90529
-3.69596
-3.50729
-3.32999
-3.15391
-2.97609
-2.80179
-2.63538
-2.47924
-2.3357
-2.20453
-2.0847
-1.97665
-1.88041
-1.7967
-1.72729
-1.67157
-1.62647
-1.58904
-1.55771
-1.53143
-1.50942
-1.49151
-1.47732
-1.46637
-1.45827
-1.45246
-1.44825
-1.44527
-1.44351
-1.44296
-1.44346
-1.4447
-1.44642
-1.44818
-1.44982
-1.45087
-1.45157
-25.7084
-25.674
-25.5826
-25.3872
-25.0118
-24.3568
-23.324
-21.8786
-20.1202
-18.2575
-16.4272
-14.6975
-13.1235
-11.7045
-10.4213
-9.27815
-8.26649
-7.38716
-6.66496
-6.08829
-5.61205
-5.19894
-4.83753
-4.51749
-4.23144
-3.98164
-3.76403
-3.57186
-3.40133
-3.24063
-3.07502
-2.90103
-2.72868
-2.56402
-2.40936
-2.26837
-2.1401
-2.02247
-1.91661
-1.82229
-1.74035
-1.67432
-1.62366
-1.58383
-1.55094
-1.5236
-1.5008
-1.48172
-1.46654
-1.45495
-1.44642
-1.44066
-1.43706
-1.4347
-1.4332
-1.43275
-1.43347
-1.4352
-1.43757
-1.44035
-1.44298
-1.44532
-1.44678
-1.44771
-26.1781
-26.1686
-26.1252
-25.9952
-25.688
-25.075
-24.0142
-22.4359
-20.4661
-18.4121
-16.4323
-14.5826
-12.9348
-11.4697
-10.146
-8.97762
-7.94604
-7.04792
-6.33404
-5.79083
-5.35071
-4.96371
-4.62587
-4.32624
-4.05546
-3.82279
-3.62344
-3.44852
-3.29787
-3.1562
-3.00137
-2.82889
-2.65711
-2.49361
-2.33958
-2.20124
-2.07617
-1.96042
-1.8567
-1.76403
-1.68303
-1.62035
-1.57549
-1.54155
-1.51328
-1.49
-1.47069
-1.45437
-1.44188
-1.4329
-1.42672
-1.42335
-1.42204
-1.42154
-1.42141
-1.4222
-1.42417
-1.42713
-1.43067
-1.43454
-1.43808
-1.44115
-1.44302
-1.44418
-26.6294
-26.6485
-26.6613
-26.6117
-26.3951
-25.8501
-24.7763
-23.0459
-20.8138
-18.5454
-16.4115
-14.433
-12.7183
-11.2171
-9.85199
-8.66318
-7.61317
-6.68718
-5.98395
-5.48599
-5.09022
-4.72903
-4.41589
-4.13761
-3.87965
-3.6643
-3.48415
-3.32577
-3.19715
-3.07802
-2.93438
-2.75976
-2.58703
-2.42439
-2.26976
-2.13441
-2.01319
-1.89869
-1.79722
-1.706
-1.62458
-1.56523
-1.52725
-1.49999
-1.47626
-1.45707
-1.44128
-1.42745
-1.41758
-1.41124
-1.40732
-1.40637
-1.4075
-1.40888
-1.40994
-1.41186
-1.41506
-1.41928
-1.424
-1.429
-1.43351
-1.43732
-1.43961
-1.44099
-27.0577
-27.1084
-27.1855
-27.2314
-27.1307
-26.6865
-25.6232
-23.7195
-21.1531
-18.6489
-16.3636
-14.2425
-12.4728
-10.9509
-9.53908
-8.33736
-7.27235
-6.30207
-5.61218
-5.17597
-4.83477
-4.4959
-4.20877
-3.95351
-3.70384
-3.50637
-3.347
-3.20304
-3.09913
-3.00764
-2.87586
-2.69333
-2.5182
-2.35675
-2.19952
-2.06794
-1.95172
-1.8373
-1.73847
-1.64872
-1.56471
-1.50866
-1.47916
-1.4596
-1.44003
-1.42496
-1.41279
-1.40098
-1.3937
-1.39008
-1.38821
-1.38975
-1.39353
-1.39681
-1.3988
-1.40172
-1.40616
-1.41166
-1.41757
-1.42376
-1.42929
-1.43387
-1.43657
-1.43813
-27.459
-27.544
-27.6921
-27.8482
-27.8909
-27.5885
-26.5713
-24.4726
-21.4677
-18.712
-16.2906
-14.0025
-12.1971
-10.6779
-9.20523
-8.00315
-6.93061
-5.88765
-5.21488
-4.86373
-4.58996
-4.26444
-4.00543
-3.77646
-3.52712
-3.34905
-3.21326
-3.07909
-3.00335
-2.94694
-2.82821
-2.6286
-2.45012
-2.29134
-2.12813
-2.00185
-1.89262
-1.77603
-1.68077
-1.59298
-1.50284
-1.4502
-1.43152
-1.42096
-1.40462
-1.39377
-1.38547
-1.37491
-1.37024
-1.36954
-1.36937
-1.37348
-1.38023
-1.38547
-1.38798
-1.39176
-1.39747
-1.40426
-1.41139
-1.41879
-1.42544
-1.43079
-1.43389
-1.43561
-27.83
-27.951
-28.1756
-28.4554
-28.6702
-28.5589
-27.6409
-25.329
-21.7316
-18.7222
-16.2004
-13.7004
-11.8904
-10.4095
-8.8453
-7.66391
-6.59903
-5.43569
-4.78656
-4.55335
-4.36346
-4.0331
-3.80643
-3.61013
-3.34743
-3.19223
-3.08507
-2.9518
-2.90887
-2.89824
-2.79476
-2.56356
-2.38207
-2.22941
-2.05432
-1.93607
-1.83717
-1.71424
-1.62445
-1.54
-1.43803
-1.3892
-1.38469
-1.38487
-1.36991
-1.36356
-1.35966
-1.3491
-1.3472
-1.34981
-1.35069
-1.35751
-1.36772
-1.37502
-1.37744
-1.38192
-1.38899
-1.39711
-1.40546
-1.41411
-1.422
-1.42812
-1.43159
-1.43343
-28.1682
-28.326
-28.6305
-29.0452
-29.4607
-29.5983
-28.8554
-26.3244
-21.904
-18.665
-16.1107
-13.3169
-11.5516
-10.1639
-8.44858
-7.32333
-6.29507
-4.93287
-4.31974
-4.25041
-4.16597
-3.79769
-3.61194
-3.46008
-3.16087
-3.03564
-2.96598
-2.81769
-2.81411
-2.86441
-2.78028
-2.4946
-2.31305
-2.17323
-1.97594
-1.87049
-1.78741
-1.6506
-1.56984
-1.49169
-1.36875
-1.32476
-1.33924
-1.35242
-1.33553
-1.33434
-1.33587
-1.32321
-1.32454
-1.33116
-1.332
-1.34178
-1.35615
-1.36569
-1.36706
-1.37214
-1.38075
-1.3902
-1.39977
-1.40968
-1.41898
-1.42586
-1.42966
-1.43156
-28.4718
-28.6661
-29.0518
-29.6092
-30.2519
-30.7034
-30.242
-27.5133
-21.9215
-18.5242
-16.0542
-12.8211
-11.18
-9.96957
-7.99528
-6.98531
-6.0458
-4.35806
-3.80492
-3.96242
-4.01254
-3.54976
-3.42168
-3.33494
-2.96069
-2.87888
-2.86185
-2.67132
-2.71674
-2.84893
-2.79169
-2.41567
-2.2418
-2.12664
-1.88949
-1.80497
-1.74651
-1.58275
-1.51727
-1.45108
-1.29258
-1.2558
-1.29591
-1.32515
-1.30068
-1.30604
-1.31488
-1.2967
-1.3022
-1.31404
-1.31299
-1.32615
-1.34567
-1.35778
-1.35667
-1.36233
-1.37275
-1.38355
-1.39431
-1.40546
-1.41645
-1.42403
-1.42808
-1.42998
-28.7398
-28.9692
-29.435
-30.139
-31.031
-31.8659
-31.829
-28.9784
-21.6875
-18.283
-16.0867
-12.1646
-10.7749
-9.87072
-7.45144
-6.65383
-5.89269
-3.6783
-3.23086
-3.69917
-3.92445
-3.27446
-3.23497
-3.24809
-2.73581
-2.72151
-2.78205
-2.50433
-2.6137
-2.85589
-2.83913
-2.31711
-2.16692
-2.096
-1.78936
-1.7393
-1.71941
-1.50662
-1.46707
-1.42277
-1.20578
-1.18101
-1.25569
-1.30521
-1.26394
-1.27859
-1.29789
-1.26864
-1.2801
-1.29913
-1.29317
-1.31047
-1.33649
-1.35172
-1.34596
-1.35238
-1.36507
-1.37715
-1.38906
-1.40141
-1.41444
-1.42264
-1.42684
-1.42868
-28.9719
-29.2341
-29.7763
-30.6259
-31.7824
-33.0699
-33.643
-30.8449
-21.0573
-17.9252
-16.2975
-11.2715
-10.3363
-9.93431
-6.76172
-6.33291
-5.89798
-2.84312
-2.58551
-3.47277
-3.93181
-2.94742
-3.0509
-3.21995
-2.46867
-2.56312
-2.74105
-2.30412
-2.50123
-2.88977
-2.93743
-2.18402
-2.08697
-2.0913
-1.66675
-1.67333
-1.71365
-1.41572
-1.41955
-1.41375
-1.10262
-1.09904
-1.21984
-1.29564
-1.22297
-1.25184
-1.28671
-1.23753
-1.25817
-1.28748
-1.27178
-1.29455
-1.32884
-1.34812
-1.33444
-1.34219
-1.3578
-1.37104
-1.38401
-1.39744
-1.41305
-1.42169
-1.42592
-1.42762
-29.1685
-29.4603
-30.0731
-31.0621
-32.4888
-34.291
-35.7028
-33.2993
-19.8181
-17.438
-16.8235
-10.0258
-9.86538
-10.2599
-5.83967
-6.0265
-6.15347
-1.77651
-1.85809
-3.29726
-4.07704
-2.53069
-2.86856
-3.28104
-2.1323
-2.4036
-2.7606
-2.05197
-2.37529
-2.95497
-3.10817
-1.994
-2.00076
-2.12779
-1.50825
-1.60698
-1.74049
-1.29993
-1.37504
-1.43432
-0.974517
-1.00868
-1.18986
-1.30072
-1.17408
-1.22569
-1.28407
-1.20111
-1.23637
-1.28065
-1.24764
-1.27824
-1.32297
-1.34783
-1.32138
-1.33169
-1.35108
-1.36519
-1.37916
-1.39341
-1.41241
-1.42121
-1.42528
-1.42679
-29.3308
-29.6484
-30.3238
-31.4408
-33.1316
-35.494
-38.0094
-36.6169
-17.6613
-16.8163
-17.8668
-8.25338
-9.36594
-10.9923
-4.55479
-5.73868
-6.79181
-0.365998
-1.0427
-3.18729
-4.41967
-1.9674
-2.6876
-3.47607
-1.68638
-2.24347
-2.87251
-1.72049
-2.2323
-3.0549
-3.38249
-1.71422
-1.90771
-2.22799
-1.29382
-1.54046
-1.81639
-1.1441
-1.33386
-1.49942
-0.808753
-0.9093
-1.16737
-1.32639
-1.11175
-1.20009
-1.29393
-1.15594
-1.21473
-1.28089
-1.219
-1.2614
-1.31911
-1.35207
-1.30568
-1.32086
-1.34514
-1.35963
-1.37451
-1.38916
-1.4127
-1.42119
-1.4249
-1.42616
-29.4603
-29.7995
-30.5279
-31.7567
-33.6924
-36.6333
-40.5317
-41.1964
-14.1486
-16.0685
-19.7175
-5.69952
-8.8466
-12.3382
-2.71602
-5.47388
-8.00093
1.55177
-0.144245
-3.15549
-5.04254
-1.17486
-2.509
-3.86898
-1.07209
-2.08448
-3.12209
-1.27025
-2.0705
-3.19043
-3.80473
-1.29765
-1.80847
-2.42422
-0.994241
-1.47447
-1.9649
-0.926105
-1.29643
-1.63025
-0.586876
-0.80154
-1.15385
-1.3809
-1.02792
-1.17517
-1.32194
-1.09701
-1.19346
-1.29139
-1.18328
-1.24409
-1.31745
-1.36251
-1.28578
-1.30979
-1.34027
-1.3543
-1.37011
-1.38443
-1.4142
-1.42162
-1.42474
-1.42571
-29.559
-29.9152
-30.686
-32.0068
-34.1548
-37.6535
-43.185
-47.6061
-8.66755
-15.2249
-22.7807
-2.00001
-8.32406
-14.5856
-0.051057
-5.23756
-10.0419
4.20978
0.812809
-3.20801
-6.05994
-0.036104
-2.3362
-4.54918
-0.205724
-1.93046
-3.57237
-0.645424
-1.89208
-3.35751
-4.43727
-0.678282
-1.70575
-2.76168
-0.56788
-1.41057
-2.21894
-0.614476
-1.26334
-1.85625
-0.282567
-0.688266
-1.15019
-1.47556
-0.911179
-1.1514
-1.37601
-1.01717
-1.17304
-1.31659
-1.13681
-1.22665
-1.31801
-1.38148
-1.25943
-1.2988
-1.33689
-1.34916
-1.36608
-1.37886
-1.41732
-1.42246
-1.42477
-1.42544
-29.6293
-29.9979
-30.8
-32.1902
-34.5062
-38.4934
-45.802
-56.6412
-0.377343
-14.3489
-27.6082
3.3538
-7.82775
-18.128
3.81854
-5.03715
-13.2706
7.93419
1.7718
-3.33747
-7.62784
1.61045
-2.17661
-5.63899
1.02928
-1.78858
-4.30913
0.231723
-1.70641
-3.54371
-5.36648
0.234672
-1.60545
-3.30215
0.0432428
-1.35173
-2.62359
-0.165559
-1.23548
-2.21761
0.141015
-0.576009
-1.156
-1.6258
-0.74572
-1.12977
-1.46691
-0.906417
-1.15442
-1.36246
-1.0744
-1.20996
-1.32055
-1.41218
-1.22354
-1.28847
-1.3355
-1.34408
-1.3626
-1.37199
-1.42263
-1.42365
-1.42501
-1.42537
-29.6737
-30.0502
-30.8726
-32.3085
-34.7391
-39.0929
-48.0946
-69.3944
11.8559
-13.5521
-34.9351
11.0565
-7.4062
-23.4923
9.40671
-4.88362
-18.1628
13.1731
2.62687
-3.51282
-9.95671
3.98326
-2.04367
-7.3022
2.79162
-1.67094
-5.44657
1.4676
-1.53448
-3.72344
-6.71023
1.56377
-1.51812
-4.1281
0.918122
-1.30297
-3.23925
0.47988
-1.2143
-2.76805
0.734491
-0.476865
-1.16857
-1.85235
-0.510154
-1.11205
-1.60901
-0.751106
-1.1392
-1.43691
-0.988952
-1.19567
-1.32438
-1.45893
-1.17387
-1.27991
-1.33675
-1.33887
-1.36003
-1.36318
-1.43094
-1.42507
-1.42547
-1.42554
-29.6949
-30.0751
-30.9072
-32.3653
-34.8532
-39.4048
-49.6053
-87.3396
29.5352
-13.0124
-45.7196
22.0363
-7.13516
-31.369
17.3963
-4.79342
-25.343
20.5312
3.20072
-3.66535
-13.327
7.37177
-1.95932
-9.75365
5.29298
-1.59669
-7.1338
3.20538
-1.41488
-3.85156
-8.62669
3.47147
-1.4608
-5.3473
2.16215
-1.27222
-4.14518
1.40055
-1.20195
-3.57803
1.56621
-0.410874
-1.18129
-2.18269
-0.175997
-1.10101
-1.82098
-0.532846
-1.12977
-1.55003
-0.870665
-1.18644
-1.32786
-1.5273
-1.10459
-1.27458
-1.34114
-1.33299
-1.35867
-1.35131
-1.4431
-1.42628
-1.42601
-1.42578
)
;

boundaryField
{
    left
    {
        type            calculated;
        value           nonuniform List<scalar> 
32
(
-20.1555
-20.2338
-20.3827
-20.5937
-20.8596
-21.1738
-21.5302
-21.9231
-22.3468
-22.7958
-23.2646
-23.7475
-24.239
-24.7334
-25.225
-25.7084
-26.1781
-26.6294
-27.0577
-27.459
-27.83
-28.1682
-28.4718
-28.7398
-28.9719
-29.1685
-29.3308
-29.4603
-29.559
-29.6293
-29.6737
-29.6949
)
;
    }
    right
    {
        type            calculated;
        value           nonuniform List<scalar> 
32
(
-1.50857
-1.5074
-1.50522
-1.50218
-1.49846
-1.49423
-1.48961
-1.48474
-1.47973
-1.4747
-1.46971
-1.46485
-1.46017
-1.45573
-1.45157
-1.44771
-1.44418
-1.44099
-1.43813
-1.43561
-1.43343
-1.43156
-1.42998
-1.42868
-1.42762
-1.42679
-1.42616
-1.42571
-1.42544
-1.42537
-1.42554
-1.42578
)
;
    }
    interface
    {
        type            calculated;
        value           nonuniform List<scalar> 
64
(
-29.6999
-30.0811
-30.9156
-32.3791
-34.8809
-39.4842
-50.0957
-97.8211
39.9499
-12.834
-52.1113
28.4776
-7.04872
-36.033
22.0884
-4.76663
-29.5935
24.8264
3.38995
-3.72447
-15.3124
9.36105
-1.93265
-11.2068
6.75855
-1.57333
-8.13588
4.22022
-1.3743
-3.89563
-9.7507
4.59303
-1.44223
-6.07042
2.89146
-1.26256
-4.68192
1.94087
-1.1983
-4.05786
2.05142
-0.389248
-1.18657
-2.37771
0.0197875
-1.09757
-1.94705
-0.405343
-1.12685
-1.61765
-0.801895
-1.18347
-1.32923
-1.56765
-1.06419
-1.27292
-1.34415
-1.32977
-1.35832
-1.34442
-1.45024
-1.42673
-1.42626
-1.42586
)
;
    }
    bottom
    {
        type            calculated;
        value           nonuniform List<scalar> 
64
(
-20.135
-20.0384
-19.8463
-19.5608
-19.1856
-18.7258
-18.1882
-17.5811
-16.9145
-16.1996
-15.4481
-14.6722
-13.8839
-13.0941
-12.313
-11.5492
-10.81
-10.1009
-9.42619
-8.78861
-8.18968
-7.62987
-7.10876
-6.62529
-6.17786
-5.76456
-5.38326
-5.03177
-4.70786
-4.4094
-4.1344
-3.88099
-3.64754
-3.43255
-3.23473
-3.05292
-2.88611
-2.73337
-2.59386
-2.46678
-2.35138
-2.24694
-2.15274
-2.06807
-1.99226
-1.92461
-1.86447
-1.81121
-1.76423
-1.72295
-1.68683
-1.65538
-1.62813
-1.60465
-1.58455
-1.56748
-1.55311
-1.54117
-1.5314
-1.52359
-1.51756
-1.51317
-1.5103
-1.50888
)
;
    }
    defaultFaces
    {
        type            empty;
    }
}


// ************************************************************************* //
