/*--------------------------------*- C++ -*----------------------------------*\
| =========                 |                                                 |
| \\      /  F ield         | OpenFOAM: The Open Source CFD Toolbox           |
|  \\    /   O peration     | Version:  5.x                                   |
|   \\  /    A nd           | Web:      www.OpenFOAM.org                      |
|    \\/     M anipulation  |                                                 |
\*---------------------------------------------------------------------------*/
FoamFile
{
    version     2.0;
    format      ascii;
    class       volScalarField;
    location    "4.7";
    object      gradTy;
}
// * * * * * * * * * * * * * * * * * * * * * * * * * * * * * * * * * * * * * //

dimensions      [0 -1 0 1 0 0 0];

internalField   nonuniform List<scalar> 
2048
(
-20.4188
-20.3241
-20.1358
-19.8561
-19.4886
-19.0382
-18.5116
-17.9174
-17.2652
-16.5664
-15.8327
-15.0762
-14.3088
-13.5414
-12.7841
-12.0454
-11.3323
-10.6505
-10.004
-9.3954
-8.82619
-8.29671
-7.80649
-7.35437
-6.93872
-6.55753
-6.20864
-5.88975
-5.59858
-5.33287
-5.0905
-4.8695
-4.66804
-4.48446
-4.3173
-4.1652
-4.02695
-3.90145
-3.78769
-3.68474
-3.59172
-3.50781
-3.43224
-3.36426
-3.30318
-3.24834
-3.19914
-3.155
-3.11541
-3.0799
-3.04806
-3.01953
-2.99398
-2.97117
-2.95087
-2.93291
-2.91715
-2.9035
-2.89188
-2.88225
-2.87456
-2.86881
-2.86498
-2.86307
-20.4953
-20.3998
-20.2098
-19.9272
-19.5555
-19.0997
-18.5664
-17.9641
-17.303
-16.5945
-15.8511
-15.085
-14.3086
-13.5332
-12.769
-12.0245
-11.307
-10.6219
-9.97321
-9.36347
-8.79394
-8.26485
-7.77556
-7.32477
-6.91071
-6.5313
-6.18425
-5.86722
-5.57785
-5.31386
-5.0731
-4.85356
-4.65343
-4.47106
-4.30498
-4.15385
-4.01649
-3.89181
-3.77881
-3.67656
-3.58421
-3.50093
-3.42595
-3.35853
-3.29798
-3.24364
-3.19489
-3.15117
-3.11196
-3.07678
-3.04524
-3.01696
-2.99163
-2.96899
-2.94883
-2.93098
-2.9153
-2.90171
-2.89013
-2.88052
-2.87285
-2.86711
-2.86328
-2.86137
-20.6408
-20.5437
-20.3504
-20.0625
-19.6832
-19.2171
-18.6709
-18.0533
-17.3749
-16.648
-15.8856
-15.1012
-14.3077
-13.517
-12.7395
-11.9842
-11.2582
-10.5669
-9.91424
-9.30241
-8.73242
-8.20418
-7.71676
-7.26857
-6.85761
-6.4816
-6.1381
-5.82462
-5.53869
-5.27798
-5.04026
-4.8235
-4.62589
-4.44578
-4.28174
-4.13245
-3.99676
-3.87361
-3.76203
-3.66112
-3.57002
-3.48792
-3.41407
-3.34772
-3.28818
-3.23477
-3.18689
-3.14396
-3.10546
-3.07092
-3.03993
-3.01213
-2.9872
-2.96489
-2.94499
-2.92734
-2.91182
-2.89833
-2.88682
-2.87726
-2.86962
-2.86389
-2.86008
-2.85817
-20.8471
-20.748
-20.5503
-20.2552
-19.8653
-19.3848
-18.8202
-18.1805
-17.4771
-16.7235
-15.9339
-15.1231
-14.3049
-13.4922
-12.6959
-11.9252
-11.1874
-10.4876
-9.82952
-9.21501
-8.64463
-8.11785
-7.63328
-7.18896
-6.78255
-6.41148
-6.07308
-5.76469
-5.4837
-5.22764
-4.99422
-4.78139
-4.58731
-4.41038
-4.24918
-4.10245
-3.9691
-3.84809
-3.73849
-3.63943
-3.55008
-3.46966
-3.39739
-3.33255
-3.27442
-3.22234
-3.17568
-3.13387
-3.09637
-3.06273
-3.03252
-3.00539
-2.98102
-2.95917
-2.93964
-2.92227
-2.90695
-2.8936
-2.88219
-2.87268
-2.86508
-2.85937
-2.85556
-2.85366
-21.107
-21.0056
-20.8029
-20.4994
-20.0967
-19.5983
-19.0104
-18.3424
-17.6067
-16.8184
-15.9935
-15.1485
-14.2988
-13.4581
-12.6381
-11.8481
-11.0955
-10.3854
-9.7209
-9.10344
-8.53303
-8.0085
-7.52791
-7.08877
-6.68832
-6.32365
-5.99182
-5.68994
-5.41522
-5.16505
-4.93706
-4.72914
-4.53946
-4.36645
-4.20876
-4.06519
-3.93471
-3.81633
-3.70919
-3.61243
-3.52526
-3.44691
-3.37663
-3.31367
-3.25732
-3.2069
-3.16178
-3.12136
-3.08513
-3.0526
-3.02337
-2.99707
-2.9734
-2.95212
-2.93303
-2.916
-2.90092
-2.88774
-2.87643
-2.86699
-2.85942
-2.85372
-2.84992
-2.84802
-21.4141
-21.3105
-21.1028
-20.7903
-20.3733
-19.8541
-19.2385
-18.5362
-17.7611
-16.9302
-16.0622
-15.1756
-14.2877
-13.4135
-12.5653
-11.7528
-10.9832
-10.2613
-9.58976
-8.9695
-8.39971
-7.87846
-7.40308
-6.97049
-6.57742
-6.22057
-5.89669
-5.60264
-5.33543
-5.09227
-4.87068
-4.66851
-4.48395
-4.31547
-4.16182
-4.02189
-3.8947
-3.77937
-3.67504
-3.58094
-3.49631
-3.42038
-3.35242
-3.29168
-3.23743
-3.18897
-3.14565
-3.10687
-3.07211
-3.0409
-3.01281
-2.98748
-2.96463
-2.944
-2.92542
-2.90876
-2.89394
-2.88094
-2.86974
-2.86036
-2.85281
-2.84712
-2.84332
-2.84141
-21.7626
-21.6572
-21.445
-21.1237
-20.6918
-20.1497
-19.5024
-18.76
-17.9382
-17.0568
-16.1376
-15.2022
-14.2699
-13.3571
-12.4768
-11.6389
-10.8504
-10.1158
-9.43723
-8.81468
-8.24649
-7.72978
-7.26102
-6.8364
-6.45212
-6.10446
-5.78985
-5.50487
-5.2463
-5.01116
-4.79683
-4.60112
-4.42224
-4.25878
-4.10957
-3.97364
-3.85008
-3.73809
-3.63688
-3.54573
-3.46391
-3.3907
-3.32535
-3.26712
-3.21524
-3.16899
-3.12771
-3.09079
-3.05769
-3.02795
-3.00114
-2.9769
-2.95495
-2.93504
-2.91701
-2.90075
-2.88621
-2.87338
-2.86228
-2.85294
-2.8454
-2.83971
-2.8359
-2.83399
-22.1469
-22.0404
-21.825
-21.4961
-21.0495
-20.4833
-19.8007
-19.0124
-18.1363
-17.1961
-16.2177
-15.2262
-14.2435
-13.2875
-12.3718
-11.5062
-10.6975
-9.94967
-9.26424
-8.64029
-8.07501
-7.56435
-7.10374
-6.68859
-6.3145
-5.97736
-5.67326
-5.39851
-5.14963
-4.92343
-4.71711
-4.52843
-4.35568
-4.19757
-4.05309
-3.9214
-3.80172
-3.69329
-3.59543
-3.50745
-3.42867
-3.35841
-3.29593
-3.24045
-3.19119
-3.14739
-3.10835
-3.07346
-3.04219
-3.01405
-2.98863
-2.96559
-2.94461
-2.92548
-2.90802
-2.89217
-2.8779
-2.86523
-2.8542
-2.84488
-2.83734
-2.83163
-2.82779
-2.82587
-22.5614
-22.4551
-22.2384
-21.9042
-21.4443
-20.8535
-20.1327
-19.2925
-18.3541
-17.3461
-16.3
-15.2452
-14.2065
-13.2032
-12.2491
-11.3541
-10.5243
-9.76319
-9.0716
-8.44756
-7.88683
-7.38395
-6.93317
-6.52901
-6.16649
-5.84112
-5.5487
-5.28527
-5.04708
-4.83064
-4.63298
-4.45179
-4.28546
-4.13291
-3.99334
-3.86605
-3.75039
-3.6457
-3.55133
-3.46667
-3.39111
-3.324
-3.26461
-3.21212
-3.16569
-3.12453
-3.08791
-3.05521
-3.02588
-2.99946
-2.97554
-2.95376
-2.93382
-2.91549
-2.89863
-2.88318
-2.86915
-2.8566
-2.84562
-2.8363
-2.82872
-2.82298
-2.81911
-2.81718
-23.0008
-22.8963
-22.6813
-22.3451
-21.8748
-21.2601
-20.4983
-19.6
-18.5904
-17.505
-16.3823
-15.2569
-14.1568
-13.1026
-12.108
-11.1822
-10.3308
-9.55675
-8.86006
-8.2376
-7.68344
-7.19032
-6.75113
-6.35949
-6.00986
-5.69742
-5.41778
-5.1667
-4.94012
-4.73423
-4.54577
-4.37239
-4.21265
-4.06575
-3.93114
-3.80834
-3.69679
-3.59592
-3.50515
-3.42392
-3.35169
-3.28789
-3.23177
-3.18248
-3.13909
-3.10075
-3.06669
-3.03629
-3.00902
-2.98441
-2.96206
-2.94162
-2.92276
-2.90526
-2.88898
-2.87391
-2.8601
-2.84764
-2.83667
-2.8273
-2.81967
-2.81386
-2.80995
-2.80799
-23.4597
-23.3592
-23.1497
-22.8163
-22.3399
-21.7031
-20.8982
-19.9351
-18.8443
-17.6708
-16.4619
-15.2587
-14.0925
-12.9844
-11.9477
-10.9904
-10.1173
-9.33071
-8.6303
-8.01155
-7.46632
-6.98515
-6.55941
-6.18178
-5.84624
-5.54782
-5.28194
-5.04416
-4.83011
-4.63551
-4.45672
-4.29133
-4.13819
-3.99689
-3.86721
-3.7489
-3.64151
-3.54451
-3.45737
-3.37962
-3.3108
-3.25043
-3.19777
-3.15188
-3.11171
-3.07634
-3.04497
-3.01697
-2.99183
-2.9691
-2.94839
-2.92934
-2.91161
-2.89495
-2.87924
-2.8645
-2.85086
-2.83845
-2.82744
-2.81799
-2.81025
-2.80436
-2.8004
-2.79841
-23.9327
-23.8386
-23.6396
-23.3152
-22.8387
-22.1834
-21.334
-20.2987
-19.1151
-17.8413
-16.5362
-15.248
-14.0113
-12.8473
-11.7675
-10.7784
-9.8838
-9.08543
-8.38295
-7.77049
-7.23697
-6.77015
-6.35974
-5.99754
-5.67716
-5.39368
-5.14247
-4.9189
-4.71824
-4.53567
-4.36696
-4.20959
-4.06291
-3.92704
-3.80216
-3.68828
-3.58505
-3.49193
-3.40844
-3.33416
-3.26877
-3.21192
-3.1629
-3.1206
-3.08382
-3.05156
-3.02298
-2.99745
-2.9745
-2.9537
-2.93469
-2.91707
-2.9005
-2.88469
-2.86951
-2.85507
-2.84153
-2.8291
-2.818
-2.80842
-2.80055
-2.79455
-2.79053
-2.78851
-24.4141
-24.3295
-24.1468
-23.8394
-23.3709
-22.7026
-21.8081
-20.6921
-19.4018
-18.0141
-16.6022
-15.2218
-13.9113
-12.6903
-11.5671
-10.5466
-9.63077
-8.82123
-8.11858
-7.51554
-6.99699
-6.54706
-6.15383
-5.80835
-5.50401
-5.23623
-5.0005
-4.79195
-4.6056
-4.43584
-4.27753
-4.12804
-3.9875
-3.85677
-3.73648
-3.62696
-3.52787
-3.4386
-3.35872
-3.28786
-3.22586
-3.17261
-3.1274
-3.0889
-3.05569
-3.02666
-3.00094
-2.97792
-2.95718
-2.93836
-2.92107
-2.90495
-2.88958
-2.8746
-2.85991
-2.84569
-2.8322
-2.81969
-2.80844
-2.79868
-2.79063
-2.78449
-2.7804
-2.77836
-24.8984
-24.8268
-24.6671
-24.3862
-23.9361
-23.2629
-22.3239
-21.1174
-19.7035
-18.1861
-16.6564
-15.1771
-13.7904
-12.5124
-11.3464
-10.2953
-9.35876
-8.53836
-7.8376
-7.24781
-6.74804
-6.31762
-5.94336
-5.61573
-5.32803
-5.07655
-4.85698
-4.66421
-4.49313
-4.33707
-4.18944
-4.04745
-3.91255
-3.78656
-3.67057
-3.5653
-3.47035
-3.38489
-3.30856
-3.24102
-3.1823
-3.13267
-3.09149
-3.05703
-3.02755
-3.00184
-2.97903
-2.95853
-2.94002
-2.92319
-2.90766
-2.89308
-2.87896
-2.86481
-2.85054
-2.83645
-2.82293
-2.81027
-2.79882
-2.78882
-2.78054
-2.77424
-2.77008
-2.76802
-25.3801
-25.3253
-25.1961
-24.9527
-24.5344
-23.8671
-22.8861
-21.5776
-20.0188
-18.3539
-16.6952
-15.1106
-13.6466
-12.3135
-11.1057
-10.0253
-9.06863
-8.23694
-7.54023
-6.96848
-6.49199
-6.08364
-5.72998
-5.42116
-5.15032
-4.91555
-4.71275
-4.53639
-4.38164
-4.24036
-4.10367
-3.96849
-3.83851
-3.71677
-3.60471
-3.5036
-3.41282
-3.33111
-3.25825
-3.1939
-3.13823
-3.09225
-3.05535
-3.02521
-2.99959
-2.97729
-2.95742
-2.93941
-2.92312
-2.90828
-2.89453
-2.88156
-2.86875
-2.85542
-2.84146
-2.82742
-2.81378
-2.80089
-2.78918
-2.77889
-2.77032
-2.76383
-2.75961
-2.75755
-25.8539
-25.8196
-25.7291
-25.5358
-25.1652
-24.519
-23.5008
-22.0767
-20.3454
-18.513
-16.715
-15.0186
-13.4784
-12.0936
-10.8455
-9.73781
-8.76163
-7.9168
-7.22635
-6.67881
-6.23097
-5.8469
-5.51528
-5.22605
-4.97181
-4.75398
-4.56853
-4.40901
-4.27179
-4.14673
-4.02122
-3.89171
-3.76571
-3.6477
-3.53909
-3.44212
-3.35562
-3.27753
-3.20809
-3.14673
-3.09374
-3.0514
-3.01914
-2.99365
-2.97203
-2.9532
-2.93627
-2.92067
-2.90657
-2.89372
-2.88174
-2.87045
-2.85907
-2.84655
-2.83276
-2.81864
-2.8048
-2.7916
-2.77957
-2.76895
-2.76002
-2.7533
-2.74904
-2.74701
-26.3144
-26.3045
-26.2611
-26.1319
-25.828
-25.2225
-24.176
-22.6201
-20.6796
-18.6579
-16.7119
-14.8971
-13.2839
-11.8538
-10.5663
-9.43447
-8.43961
-7.57734
-6.89532
-6.38023
-5.9675
-5.60913
-5.30075
-5.03186
-4.7932
-4.59245
-4.42497
-4.28235
-4.16407
-4.05723
-3.94318
-3.81748
-3.69432
-3.57958
-3.47379
-3.38103
-3.29905
-3.22438
-3.15832
-3.09977
-3.04887
-3.01013
-2.98301
-2.9626
-2.94502
-2.9297
-2.91572
-2.90239
-2.89042
-2.87957
-2.86931
-2.85981
-2.85001
-2.83829
-2.82446
-2.81014
-2.79604
-2.78243
-2.77004
-2.75904
-2.74964
-2.74267
-2.73841
-2.73646
-26.7569
-26.775
-26.7869
-26.7364
-26.5213
-25.9822
-24.9221
-23.2154
-21.0155
-18.7817
-16.6832
-14.7411
-13.0618
-11.5962
-10.2686
-9.11728
-8.10542
-7.21717
-6.54584
-6.07444
-5.70472
-5.37183
-5.08774
-4.84013
-4.61489
-4.43138
-4.28273
-4.1564
-4.05878
-3.97301
-3.87079
-3.74598
-3.62437
-3.51263
-3.40875
-3.32045
-3.24349
-3.17183
-3.10922
-3.05332
-3.00353
-2.96834
-2.94711
-2.93231
-2.91872
-2.90694
-2.89591
-2.88461
-2.87474
-2.86589
-2.85726
-2.84967
-2.84169
-2.83078
-2.8166
-2.80194
-2.78754
-2.77339
-2.76063
-2.74921
-2.73921
-2.73195
-2.72777
-2.72596
-27.1769
-27.2261
-27.301
-27.3443
-27.243
-26.8026
-25.7519
-23.8735
-21.343
-18.8758
-16.6275
-14.5447
-12.8108
-11.3249
-9.95209
-8.78871
-7.76339
-6.83365
-6.1756
-5.7636
-5.44667
-5.13606
-4.87743
-4.65268
-4.43684
-4.27103
-4.14265
-4.03077
-3.95593
-3.8954
-3.80559
-3.67701
-3.55568
-3.44717
-3.34373
-3.26045
-3.18936
-3.11992
-3.06104
-3.00777
-2.95753
-2.92585
-2.91159
-2.9031
-2.89322
-2.88503
-2.87699
-2.86733
-2.85954
-2.85275
-2.84553
-2.84004
-2.83425
-2.82417
-2.80916
-2.79403
-2.77936
-2.76448
-2.75136
-2.73955
-2.72873
-2.72114
-2.71714
-2.71557
-27.5705
-27.6534
-27.7981
-27.9497
-27.9891
-27.6877
-26.6817
-24.61
-21.6462
-18.93
-16.5469
-14.2994
-12.5299
-11.0466
-9.61491
-8.45165
-7.42035
-6.42217
-5.78102
-5.45058
-5.1987
-4.90202
-4.6707
-4.47189
-4.25832
-4.11151
-4.00593
-3.90455
-3.85521
-3.82597
-3.74959
-3.60987
-3.48788
-3.38371
-3.27824
-3.20105
-3.13731
-3.06853
-3.01402
-2.96369
-2.91048
-2.88234
-2.87667
-2.87539
-2.86855
-2.86403
-2.85915
-2.85049
-2.84484
-2.84025
-2.83403
-2.83086
-2.82783
-2.81866
-2.80206
-2.78639
-2.77156
-2.75566
-2.74229
-2.73015
-2.71816
-2.71021
-2.70657
-2.70537
-27.9344
-28.0527
-28.2726
-28.5458
-28.7543
-28.6405
-27.7313
-25.4484
-21.8995
-18.9318
-16.4491
-13.9931
-12.2181
-10.7723
-9.25211
-8.10932
-7.08702
-5.97499
-5.35692
-5.13928
-4.96814
-4.66839
-4.46808
-4.30114
-4.07758
-3.95274
-3.8745
-3.77602
-3.75589
-3.76665
-3.70551
-3.54304
-3.42038
-3.3232
-3.21136
-3.14221
-3.08827
-3.01726
-2.96842
-2.92194
-2.86172
-2.83735
-2.8426
-2.84971
-2.84461
-2.84401
-2.84267
-2.83395
-2.83063
-2.82853
-2.82258
-2.82207
-2.82262
-2.8145
-2.79513
-2.77897
-2.76425
-2.74684
-2.73342
-2.72114
-2.70744
-2.69913
-2.69608
-2.69543
-28.2662
-28.4206
-28.719
-29.1249
-29.5306
-29.6615
-28.924
-26.4239
-22.0625
-18.8669
-16.3514
-13.6067
-11.8745
-10.5198
-8.85338
-7.76525
-6.78018
-5.47954
-4.89627
-4.83503
-4.76515
-4.43137
-4.26972
-4.14553
-3.89121
-3.79448
-3.75152
-3.64238
-3.65667
-3.71979
-3.67726
-3.47371
-3.35232
-3.2673
-3.14157
-3.08386
-3.04368
-2.96519
-2.92448
-2.88389
-2.81018
-2.79026
-2.80975
-2.82683
-2.82111
-2.82498
-2.82791
-2.81739
-2.81687
-2.81786
-2.81089
-2.81353
-2.81883
-2.81207
-2.78808
-2.77167
-2.75764
-2.73788
-2.72478
-2.71273
-2.69645
-2.68783
-2.68572
-2.68581
-28.564
-28.7543
-29.1326
-29.6788
-30.308
-30.7475
-30.2864
-27.5902
-22.073
-18.7195
-16.2859
-13.1102
-11.4983
-10.317
-8.39962
-7.42313
-6.52588
-4.91573
-4.39009
-4.54498
-4.60396
-4.18321
-4.07531
-4.01293
-3.69326
-3.63637
-3.64213
-3.49913
-3.55568
-3.68823
-3.6704
-3.39717
-3.28268
-3.21891
-3.0663
-3.02585
-3.00582
-2.91068
-2.88244
-2.85162
-2.75415
-2.74027
-2.77864
-2.80779
-2.79745
-2.80689
-2.81548
-2.8003
-2.80353
-2.80864
-2.79851
-2.80503
-2.81672
-2.8119
-2.7804
-2.76439
-2.75204
-2.72847
-2.71638
-2.70521
-2.68498
-2.6762
-2.67551
-2.67661
-28.8269
-29.0518
-29.5087
-30.1992
-31.0737
-31.8903
-31.8465
-29.029
-21.8358
-18.4727
-16.3075
-12.4562
-11.0889
-10.2068
-7.85802
-7.08672
-6.36391
-4.25224
-3.82773
-4.27844
-4.50466
-3.91015
-3.88415
-3.91548
-3.4739
-3.47793
-3.55446
-3.33927
-3.45038
-3.67532
-3.6931
-3.30584
-3.21024
-3.18274
-2.98147
-2.968
-2.97818
-2.85089
-2.84252
-2.82835
-2.69099
-2.68644
-2.74992
-2.79409
-2.77256
-2.78968
-2.80629
-2.78185
-2.79055
-2.80155
-2.78476
-2.7963
-2.81658
-2.8148
-2.77127
-2.757
-2.74794
-2.71815
-2.70823
-2.69905
-2.67267
-2.66414
-2.66552
-2.66791
-29.0545
-29.3118
-29.8439
-30.6776
-31.8123
-33.0744
-33.6306
-30.8635
-21.2086
-18.1105
-16.5037
-11.5706
-10.6461
-10.2545
-7.17504
-6.75979
-6.35399
-3.44096
-3.19782
-4.04695
-4.49555
-3.58962
-3.69529
-3.87169
-3.21748
-3.31874
-3.50104
-3.15223
-3.33771
-3.68473
-3.75721
-3.18801
-3.13378
-3.16627
-2.88067
-2.91016
-2.96608
-2.78126
-2.80491
-2.81894
-2.61664
-2.62778
-2.72444
-2.78784
-2.74469
-2.77325
-2.80178
-2.76072
-2.77786
-2.79766
-2.76862
-2.787
-2.81875
-2.82191
-2.75946
-2.74936
-2.74617
-2.70618
-2.70032
-2.69494
-2.65899
-2.65154
-2.65581
-2.65979
-29.2474
-29.5339
-30.1353
-31.1063
-32.5068
-34.2755
-35.6572
-33.2776
-19.9815
-17.6206
-17.0087
-10.3399
-10.1712
-10.5569
-6.26702
-6.44614
-6.58413
-2.40936
-2.49019
-3.86387
-4.6165
-3.18639
-3.50784
-3.9092
-2.89997
-3.15866
-3.50067
-2.92217
-3.2144
-3.7201
-3.87995
-3.02605
-3.05226
-3.18086
-2.75409
-2.85225
-2.97748
-2.69469
-2.76983
-2.83058
-2.52505
-2.56339
-2.70321
-2.79201
-2.71113
-2.7575
-2.80407
-2.73489
-2.76542
-2.79855
-2.74859
-2.77678
-2.82353
-2.83494
-2.74311
-2.74135
-2.74793
-2.69142
-2.69267
-2.69388
-2.64312
-2.6383
-2.64649
-2.65236
-29.4065
-29.7185
-30.3814
-31.4784
-33.1388
-35.4592
-37.9274
-36.5425
-17.8509
-16.9976
-18.021
-8.59385
-9.66791
-11.255
-5.00761
-6.1497
-7.18148
-1.05008
-1.69941
-3.74326
-4.92331
-2.64755
-3.32149
-4.06845
-2.48534
-2.99815
-3.58079
-2.62588
-3.07765
-3.78433
-4.08609
-2.79412
-2.96522
-3.24332
-2.58704
-2.79441
-3.02403
-2.58053
-2.73749
-2.8737
-2.40729
-2.49281
-2.68732
-2.81081
-2.66786
-2.74235
-2.81633
-2.70141
-2.75323
-2.80661
-2.72254
-2.76532
-2.83115
-2.8564
-2.71954
-2.73288
-2.75508
-2.6722
-2.68528
-2.69736
-2.62386
-2.62442
-2.63772
-2.64571
-29.5334
-29.8667
-30.5817
-31.7889
-33.6903
-36.5803
-40.4104
-41.051
-14.385
-16.2501
-19.825
-6.08316
-9.14498
-12.5497
-3.21171
-5.87498
-8.32609
0.792952
-0.830363
-3.69735
-5.49356
-1.89618
-3.13731
-4.40724
-1.92102
-2.83891
-3.78043
-2.22984
-2.92624
-3.8784
-4.41087
-2.45516
-2.87326
-3.37777
-2.35809
-2.73722
-3.12237
-2.42325
-2.70816
-2.96313
-2.25042
-2.41643
-2.67778
-2.85008
-2.60903
-2.72785
-2.84311
-2.656
-2.74138
-2.82527
-2.68741
-2.75244
-2.84166
-2.88984
-2.68492
-2.72401
-2.77027
-2.64607
-2.67823
-2.70748
-2.59945
-2.61005
-2.6297
-2.63996
-29.6301
-29.9803
-30.7369
-32.0347
-34.1451
-37.5843
-43.0227
-47.3631
-8.98065
-15.4082
-22.8179
-2.45139
-8.61912
-14.7209
-0.615486
-5.62777
-10.2681
3.34243
0.0932735
-3.73239
-6.43415
-0.823365
-2.95891
-5.0063
-1.13207
-2.68475
-4.15383
-1.6865
-2.76246
-3.9994
-4.90376
-1.95715
-2.77884
-3.61793
-2.03668
-2.68201
-3.29579
-2.20076
-2.68228
-3.11949
-2.03599
-2.33625
-2.67518
-2.91789
-2.52639
-2.7142
-2.89084
-2.59258
-2.73012
-2.85932
-2.63892
-2.73829
-2.85472
-2.94033
-2.63391
-2.71495
-2.79725
-2.6096
-2.67167
-2.72718
-2.56738
-2.59557
-2.6227
-2.6352
-29.699
-30.0614
-30.8488
-32.2148
-34.4906
-38.4109
-45.5997
-56.2622
-0.809808
-14.5349
-27.5406
2.79943
-8.11988
-18.151
3.14795
-5.41625
-13.3481
6.91016
1.01704
-3.84207
-7.89087
0.721428
-2.79405
-5.976
-0.0140761
-2.5428
-4.7747
-0.929514
-2.59473
-4.13788
-5.63326
-1.22846
-2.68724
-4.00977
-1.58018
-2.63131
-3.57617
-1.88242
-2.66053
-3.37095
-1.73826
-2.25687
-2.67925
-3.02529
-2.40859
-2.70191
-2.96835
-2.50277
-2.71994
-2.91534
-2.57116
-2.72362
-2.86935
-3.01493
-2.5592
-2.70623
-2.84116
-2.55803
-2.66587
-2.76048
-2.52415
-2.58179
-2.61704
-2.63155
-29.7424
-30.1127
-30.92
-32.331
-34.7196
-39.001
-47.8576
-68.8247
11.2444
-13.7412
-34.7135
10.3494
-7.69599
-23.3518
8.577
-5.25274
-18.0217
11.9247
1.83938
-3.99796
-10.0603
2.94184
-2.65669
-7.46396
1.57528
-2.42514
-5.74109
0.131986
-2.44145
-4.27396
-6.69272
-0.172362
-2.60794
-4.61463
-0.930468
-2.58941
-4.00619
-1.42667
-2.64402
-3.75521
-1.32184
-2.1868
-2.68806
-3.18718
-2.24032
-2.69195
-3.08748
-2.3752
-2.71167
-3.00213
-2.47607
-2.71011
-2.88356
-3.12327
-2.45095
-2.69876
-2.90893
-2.4849
-2.66128
-2.81275
-2.46496
-2.57009
-2.61309
-2.62909
-29.7629
-30.1371
-30.9539
-32.3868
-34.8318
-39.3079
-49.3454
-86.5027
28.6626
-13.2039
-45.2758
21.1077
-7.42341
-30.9935
16.3342
-5.15568
-24.8864
18.9644
2.39076
-4.13616
-13.2041
6.10808
-2.56931
-9.66333
3.82624
-2.35067
-7.18051
1.62069
-2.33568
-4.37193
-8.20707
1.33979
-2.55581
-5.51211
-0.00952878
-2.56274
-4.64144
-0.777891
-2.63411
-4.32137
-0.738624
-2.13986
-2.69666
-3.423
-2.00093
-2.68547
-3.26346
-2.19433
-2.70625
-3.13084
-2.34244
-2.70045
-2.89343
-3.27795
-2.29577
-2.69362
-3.00922
-2.38123
-2.6582
-2.89064
-2.38288
-2.56227
-2.61076
-2.62751
)
;

boundaryField
{
    left
    {
        type            calculated;
        value           nonuniform List<scalar> 
32
(
-20.4188
-20.4953
-20.6408
-20.8471
-21.107
-21.4141
-21.7626
-22.1469
-22.5614
-23.0008
-23.4597
-23.9327
-24.4141
-24.8984
-25.3801
-25.8539
-26.3144
-26.7569
-27.1769
-27.5705
-27.9344
-28.2662
-28.564
-28.8269
-29.0545
-29.2474
-29.4065
-29.5334
-29.6301
-29.699
-29.7424
-29.7629
)
;
    }
    right
    {
        type            calculated;
        value           nonuniform List<scalar> 
32
(
-2.86307
-2.86137
-2.85817
-2.85366
-2.84802
-2.84141
-2.83399
-2.82587
-2.81718
-2.80799
-2.79841
-2.78851
-2.77836
-2.76802
-2.75755
-2.74701
-2.73646
-2.72596
-2.71557
-2.70537
-2.69543
-2.68581
-2.67661
-2.66791
-2.65979
-2.65236
-2.64571
-2.63996
-2.6352
-2.63155
-2.62909
-2.62751
)
;
    }
    interface
    {
        type            calculated;
        value           nonuniform List<scalar> 
64
(
-29.7678
-30.1428
-30.962
-32.4002
-34.859
-39.386
-49.8284
-96.8283
38.923
-13.0262
-51.5366
27.4183
-7.33642
-35.5194
20.889
-5.12654
-28.951
23.0734
2.57253
-4.19014
-15.0568
7.96605
-2.54153
-10.9681
5.14425
-2.32707
-8.03643
2.48941
-2.29988
-4.40572
-9.09577
2.22819
-2.53877
-6.04519
0.529896
-2.55415
-5.01819
-0.397306
-2.63096
-4.65683
-0.398397
-2.12426
-2.70004
-3.56213
-1.86048
-2.68324
-3.36776
-2.08831
-2.70436
-3.2072
-2.26434
-2.69697
-2.89663
-3.36862
-2.2045
-2.69176
-3.06868
-2.32044
-2.65704
-2.93689
-2.3351
-2.55956
-2.60994
-2.62684
)
;
    }
    bottom
    {
        type            calculated;
        value           nonuniform List<scalar> 
64
(
-20.3988
-20.3044
-20.1166
-19.8376
-19.4711
-19.0221
-18.4974
-17.9052
-17.2554
-16.559
-15.8279
-15.0739
-14.3088
-13.5435
-12.788
-12.0508
-11.3389
-10.6579
-10.012
-9.4037
-8.83457
-8.305
-7.81455
-7.36209
-6.94602
-6.56438
-6.21501
-5.89565
-5.604
-5.33784
-5.09506
-4.87367
-4.67186
-4.48797
-4.32052
-4.16816
-4.02968
-3.90397
-3.79001
-3.68688
-3.59369
-3.50961
-3.43388
-3.36576
-3.30454
-3.24957
-3.20025
-3.156
-3.11631
-3.08071
-3.0488
-3.0202
-2.9946
-2.97174
-2.95141
-2.93342
-2.91764
-2.90397
-2.89234
-2.8827
-2.87501
-2.86926
-2.86543
-2.86351
)
;
    }
    defaultFaces
    {
        type            empty;
    }
}


// ************************************************************************* //
