/*--------------------------------*- C++ -*----------------------------------*\
| =========                 |                                                 |
| \\      /  F ield         | OpenFOAM: The Open Source CFD Toolbox           |
|  \\    /   O peration     | Version:  5.x                                   |
|   \\  /    A nd           | Web:      www.OpenFOAM.org                      |
|    \\/     M anipulation  |                                                 |
\*---------------------------------------------------------------------------*/
FoamFile
{
    version     2.0;
    format      ascii;
    class       volScalarField;
    location    "4.7";
    object      T;
}
// * * * * * * * * * * * * * * * * * * * * * * * * * * * * * * * * * * * * * //

dimensions      [0 0 0 1 0 0 0];

internalField   nonuniform List<scalar> 
2048
(
9.85345
9.85413
9.85548
9.85748
9.86011
9.86334
9.86711
9.87136
9.87603
9.88104
9.88629
9.89171
9.8972
9.9027
9.90813
9.91342
9.91854
9.92343
9.92807
9.93244
9.93653
9.94033
9.94386
9.94711
9.9501
9.95284
9.95535
9.95764
9.95974
9.96165
9.9634
9.96499
9.96644
9.96776
9.96896
9.97005
9.97105
9.97195
9.97277
9.97351
9.97418
9.97479
9.97533
9.97582
9.97626
9.97665
9.97701
9.97733
9.97761
9.97787
9.9781
9.9783
9.97849
9.97865
9.9788
9.97893
9.97904
9.97914
9.97922
9.97929
9.97935
9.97939
9.97941
9.97943
9.5662
9.56821
9.57221
9.57816
9.58597
9.59555
9.60674
9.61938
9.63324
9.6481
9.6637
9.67979
9.6961
9.71241
9.72851
9.74421
9.75936
9.77385
9.78758
9.80051
9.8126
9.82385
9.83426
9.84386
9.85268
9.86077
9.86818
9.87495
9.88113
9.88677
9.89192
9.89661
9.90088
9.90478
9.90833
9.91156
9.91449
9.91716
9.91957
9.92176
9.92373
9.92551
9.92712
9.92856
9.92985
9.93102
9.93206
9.933
9.93384
9.93459
9.93527
9.93587
9.93642
9.9369
9.93733
9.93771
9.93805
9.93834
9.93858
9.93879
9.93895
9.93907
9.93915
9.9392
9.28998
9.29329
9.29986
9.30963
9.32248
9.33824
9.35667
9.37748
9.40032
9.4248
9.45049
9.47696
9.5038
9.53061
9.55705
9.58281
9.60765
9.63138
9.65385
9.67499
9.69473
9.71309
9.73006
9.74571
9.76008
9.77326
9.78531
9.79632
9.80637
9.81554
9.82391
9.83154
9.83849
9.84482
9.85059
9.85584
9.86062
9.86495
9.86887
9.87243
9.87563
9.87853
9.88113
9.88348
9.88558
9.88747
9.88917
9.89069
9.89205
9.89327
9.89437
9.89535
9.89623
9.89702
9.89772
9.89834
9.89888
9.89936
9.89976
9.90009
9.90036
9.90056
9.90069
9.90076
9.02357
9.02813
9.03722
9.05073
9.06851
9.09034
9.11589
9.14476
9.17646
9.21042
9.24606
9.28276
9.31993
9.35702
9.39356
9.42911
9.46335
9.49601
9.5269
9.55591
9.58299
9.60812
9.63135
9.65273
9.67236
9.69034
9.70678
9.7218
9.7355
9.74799
9.75939
9.76978
9.77925
9.78788
9.79575
9.8029
9.8094
9.81531
9.82065
9.82549
9.82986
9.8338
9.83735
9.84054
9.8434
9.84597
9.84827
9.85034
9.85219
9.85385
9.85534
9.85668
9.85788
9.85895
9.8599
9.86075
9.86149
9.86213
9.86268
9.86314
9.8635
9.86378
9.86396
9.86405
8.76592
8.77171
8.78326
8.80044
8.82309
8.85093
8.88355
8.92043
8.96095
9.00436
9.0499
9.09675
9.14415
9.19139
9.23784
9.28297
9.32636
9.36768
9.40669
9.44328
9.47737
9.50896
9.53812
9.56494
9.58953
9.61204
9.6326
9.65137
9.66849
9.6841
9.69833
9.71131
9.72314
9.73393
9.74375
9.75269
9.76082
9.76819
9.77487
9.78092
9.78637
9.79129
9.79571
9.79969
9.80325
9.80645
9.80932
9.81189
9.8142
9.81627
9.81812
9.81979
9.82128
9.82262
9.82381
9.82487
9.8258
9.8266
9.82729
9.82787
9.82832
9.82867
9.82889
9.82901
8.51619
8.52319
8.53714
8.55795
8.58541
8.61922
8.6589
8.70382
8.75319
8.8061
8.86155
8.91856
8.97615
9.03345
9.08969
9.14423
9.19656
9.24629
9.29316
9.33701
9.3778
9.41555
9.45033
9.48227
9.51154
9.53828
9.5627
9.58498
9.60528
9.62379
9.64067
9.65606
9.6701
9.68289
9.69455
9.70515
9.71479
9.72354
9.73147
9.73864
9.7451
9.75093
9.75616
9.76086
9.76508
9.76886
9.77225
9.77529
9.77801
9.78046
9.78265
9.78462
9.78639
9.78797
9.78938
9.79064
9.79174
9.7927
9.79353
9.79421
9.79475
9.79516
9.79544
9.79557
8.27368
8.28185
8.29817
8.32254
8.35477
8.39454
8.4413
8.49432
8.55265
8.61516
8.68063
8.74786
8.81566
8.88299
8.94893
9.01274
9.07382
9.13173
9.18618
9.23702
9.28421
9.32779
9.36788
9.40465
9.43828
9.46899
9.497
9.52253
9.5458
9.567
9.58633
9.60396
9.62004
9.6347
9.64806
9.66021
9.67126
9.68129
9.69037
9.69858
9.70598
9.71264
9.71863
9.724
9.72882
9.73313
9.737
9.74046
9.74356
9.74635
9.74885
9.7511
9.75312
9.75493
9.75655
9.75799
9.75926
9.76037
9.76131
9.7621
9.76273
9.76321
9.76352
9.76368
8.03782
8.04714
8.06576
8.09362
8.13058
8.1763
8.2302
8.29143
8.35886
8.43113
8.50678
8.58434
8.66242
8.73978
8.81536
8.88832
8.95797
9.02385
9.08564
9.14318
9.19646
9.24557
9.29066
9.33194
9.36965
9.40405
9.43538
9.46392
9.48992
9.5136
9.53519
9.55489
9.57286
9.58925
9.60418
9.61778
9.63014
9.64135
9.6515
9.66067
9.66894
9.67637
9.68305
9.68903
9.69439
9.69919
9.70348
9.70733
9.71079
9.71388
9.71667
9.71917
9.72142
9.72344
9.72525
9.72686
9.72829
9.72953
9.7306
9.73148
9.7322
9.73273
9.73309
9.73327
7.80816
7.81857
7.83942
7.8707
7.91232
7.96398
8.02509
8.09467
8.1714
8.25366
8.3397
8.42775
8.5162
8.60362
8.6888
8.7708
8.84888
8.92251
8.99137
9.05533
9.1144
9.16872
9.2185
9.26399
9.30549
9.3433
9.3777
9.40901
9.43751
9.46347
9.48714
9.50874
9.52845
9.54643
9.56283
9.57776
9.59133
9.60363
9.61477
9.62483
9.63389
9.64203
9.64933
9.65587
9.66172
9.66696
9.67164
9.67584
9.6796
9.68298
9.68602
9.68875
9.69121
9.69343
9.69541
9.69718
9.69876
9.70013
9.70131
9.70229
9.70308
9.70367
9.70407
9.70427
7.58433
7.59579
7.61876
7.65335
7.69955
7.75714
7.82552
7.90363
7.98991
8.08243
8.1791
8.27785
8.3768
8.47431
8.56907
8.66002
8.74635
8.82752
8.90321
8.9733
9.03786
9.09708
9.15123
9.20064
9.24564
9.28658
9.3238
9.35764
9.38843
9.41646
9.44203
9.46537
9.48669
9.50614
9.52389
9.54004
9.55473
9.56804
9.58009
9.59097
9.60075
9.60954
9.61741
9.62444
9.63074
9.63636
9.6414
9.64591
9.64995
9.65358
9.65684
9.65978
9.66243
9.66482
9.66697
9.6689
9.6706
9.6721
9.67338
9.67446
9.67532
9.67597
9.67641
9.67663
7.36606
7.37849
7.40347
7.44121
7.49187
7.55535
7.63109
7.71793
7.81405
7.91716
8.02476
8.13444
8.24402
8.35169
8.45599
8.55578
8.65022
8.73873
8.82099
8.89691
8.96664
9.03044
9.08867
9.14169
9.18992
9.23373
9.27352
9.30965
9.34251
9.37243
9.39973
9.42466
9.44744
9.46826
9.48724
9.50453
9.52024
9.53449
9.54738
9.559
9.56944
9.57881
9.58719
9.59468
9.60136
9.60734
9.61268
9.61746
9.62175
9.6256
9.62907
9.6322
9.63502
9.63757
9.63987
9.64193
9.64377
9.64538
9.64677
9.64793
9.64887
9.64957
9.65005
9.65028
7.15314
7.16644
7.19327
7.23399
7.28895
7.35824
7.44141
7.53721
7.64353
7.7576
7.87648
7.99733
8.1177
8.23558
8.34939
8.45793
8.56031
8.65594
8.7445
8.82597
8.90055
8.96862
9.0306
9.08696
9.13813
9.18456
9.22667
9.26488
9.29961
9.33122
9.36008
9.38646
9.41059
9.43265
9.45278
9.47111
9.48777
9.50287
9.51652
9.52883
9.53988
9.54977
9.55861
9.56649
9.57353
9.5798
9.58541
9.59044
9.59494
9.59899
9.60264
9.60593
9.6089
9.6116
9.61404
9.61623
9.61819
9.61991
9.6214
9.62265
9.62366
9.62442
9.62492
9.62518
6.94541
6.95949
6.98798
7.03143
7.09046
7.16546
7.25612
7.36115
7.47806
7.60354
7.73406
7.86637
7.99768
8.12581
8.24908
8.36625
8.47641
8.57896
8.67356
8.76026
8.83937
8.91138
8.97682
9.03622
9.09008
9.13888
9.18308
9.22315
9.25954
9.29268
9.32294
9.35064
9.376
9.3992
9.42038
9.43968
9.4572
9.47309
9.48744
9.50037
9.51197
9.52234
9.53158
9.53981
9.54714
9.55369
9.55953
9.56476
9.56945
9.57367
9.57748
9.58091
9.58403
9.58685
9.58942
9.59174
9.59381
9.59564
9.59723
9.59856
9.59963
9.60044
9.60099
9.60126
6.7428
6.75752
6.78743
6.83332
6.89615
6.97668
7.07488
7.18942
7.31741
7.45479
7.59738
7.74142
7.88381
8.02221
8.15489
8.28058
8.39835
8.50759
8.60797
8.69957
8.78288
8.85851
8.92711
8.98927
9.04557
9.0965
9.14258
9.1843
9.22216
9.25663
9.28815
9.31705
9.34354
9.3678
9.38995
9.41012
9.42845
9.44505
9.46005
9.47354
9.48564
9.49643
9.50603
9.51456
9.52215
9.52892
9.53496
9.54037
9.54522
9.54959
9.55353
9.55709
9.56032
9.56327
9.56596
9.56839
9.57057
9.57251
9.57419
9.5756
9.57674
9.5776
9.57818
9.57847
6.54523
6.56046
6.59152
6.63949
6.70577
6.79158
6.89733
7.02174
7.16136
7.31121
7.4663
7.62237
7.77596
7.92462
8.06663
8.2007
8.32591
8.44164
8.54751
8.64369
8.73084
8.80978
8.88124
8.94591
9.00439
9.05724
9.10498
9.14815
9.18729
9.22293
9.25557
9.28556
9.31309
9.33832
9.36136
9.38235
9.4014
9.41866
9.43425
9.44826
9.4608
9.47197
9.48188
9.49066
9.49847
9.50542
9.51163
9.5172
9.52219
9.52668
9.53073
9.5344
9.53774
9.5408
9.54359
9.54614
9.54843
9.55046
9.55223
9.55372
9.55493
9.55584
9.55645
9.55676
6.35271
6.36828
6.40018
6.44981
6.51909
6.60987
6.72315
6.85779
7.00971
7.17267
7.34073
7.50911
7.67399
7.83287
7.98412
8.12641
8.25889
8.38091
8.492
8.5924
8.68303
8.76494
8.83898
8.9059
8.96636
9.02091
9.0701
9.11454
9.15478
9.19143
9.22505
9.25603
9.28452
9.31065
9.33452
9.35625
9.37597
9.39383
9.40995
9.42444
9.43739
9.44889
9.45905
9.46805
9.47603
9.48314
9.48949
9.49518
9.50028
9.50488
9.50903
9.51279
9.51622
9.51937
9.52227
9.52492
9.52732
9.52945
9.53131
9.53288
9.53415
9.53511
9.53575
9.53607
6.16524
6.18097
6.21337
6.26419
6.33592
6.43125
6.55196
6.69728
6.86232
7.03908
7.22058
7.40157
7.57779
7.7468
7.90715
8.0575
8.19706
8.3252
8.44123
8.54546
8.6392
8.72378
8.80012
8.86905
8.93127
8.98732
9.03779
9.08331
9.12447
9.16196
9.19644
9.22833
9.25772
9.28468
9.30933
9.33174
9.35207
9.37047
9.38708
9.40199
9.41532
9.42711
9.43749
9.44665
9.45477
9.462
9.46847
9.47426
9.47946
9.48413
9.48836
9.4922
9.49571
9.49895
9.50195
9.5047
9.50719
9.50942
9.51137
9.51302
9.51435
9.51537
9.51604
9.51637
5.98285
5.99857
6.03108
6.08255
6.15611
6.25541
6.3834
6.53989
6.71906
6.9104
7.10579
7.29967
7.48722
7.6662
7.83553
7.99373
8.14019
8.27433
8.39501
8.50266
8.5991
8.68605
8.76443
8.83513
8.89895
8.95632
9.00787
9.05432
9.09622
9.13438
9.16961
9.20235
9.23258
9.26032
9.28568
9.30871
9.32959
9.3485
9.36554
9.38085
9.39452
9.40656
9.41711
9.42639
9.43463
9.44195
9.4485
9.45437
9.45965
9.46439
9.46869
9.47258
9.47615
9.47947
9.48257
9.48542
9.48801
9.49033
9.49236
9.49409
9.4955
9.49656
9.49726
9.4976
5.80561
5.82111
5.85335
5.90486
5.9795
6.08209
6.21705
6.38529
6.57986
6.78661
6.9963
7.20337
7.40216
7.59087
7.76906
7.93488
8.08804
8.22813
8.35318
8.46375
8.56247
8.65153
8.7317
8.80395
8.86921
8.92773
8.9802
9.02742
9.06989
9.10854
9.1444
9.17797
9.20899
9.23745
9.26349
9.28709
9.30845
9.32783
9.34527
9.36094
9.37493
9.3872
9.39786
9.40722
9.41553
9.42292
9.42953
9.43548
9.44081
9.44561
9.44995
9.45389
9.45751
9.46089
9.46408
9.46703
9.46972
9.47214
9.47425
9.47606
9.47753
9.47864
9.47937
9.47973
5.63355
5.64864
5.6802
5.73112
5.806
5.91098
6.05248
6.23309
6.44473
6.66776
6.89203
7.11266
7.3225
7.52057
7.70755
7.8807
8.04034
8.18643
8.31557
8.42852
8.52904
8.62
8.7017
8.7753
8.84189
8.90139
8.9546
9.00248
9.04536
9.08429
9.12068
9.15507
9.18686
9.21599
9.24268
9.26679
9.28858
9.30838
9.32619
9.34218
9.35649
9.36894
9.37968
9.38907
9.39743
9.40486
9.41151
9.41751
9.42289
9.42772
9.43211
9.43607
9.43972
9.44317
9.44645
9.4495
9.45228
9.45479
9.45699
9.45887
9.46042
9.46157
9.46233
9.46269
5.46674
5.48122
5.51169
5.56136
5.63554
5.74185
5.88919
6.08287
6.3138
6.55391
6.79288
7.02756
7.24809
7.45503
7.65082
7.83094
7.99678
8.14912
8.28205
8.39671
8.49853
8.59124
8.67425
8.74895
8.81684
8.87716
8.93093
8.9794
9.02249
9.0615
9.0983
9.13358
9.1661
9.19585
9.22318
9.24773
9.26988
9.2901
9.30821
9.3245
9.33915
9.35176
9.36249
9.37187
9.38027
9.38771
9.39438
9.40043
9.40583
9.41069
9.41511
9.41909
9.42274
9.42624
9.42964
9.43278
9.43565
9.43826
9.44054
9.44249
9.44411
9.44532
9.44609
9.44647
5.30522
5.31892
5.34791
5.39564
5.46809
5.57444
5.72663
5.93406
6.18733
6.4452
6.69866
6.94813
7.17883
7.39391
7.59874
7.78533
7.95699
8.11613
8.25254
8.36807
8.47061
8.56509
8.64915
8.72471
8.79393
8.85491
8.90904
8.95808
9.00119
9.04001
9.07711
9.11341
9.14664
9.17692
9.20493
9.22984
9.25227
9.27291
9.29129
9.30783
9.32285
9.33558
9.34626
9.35557
9.36399
9.37143
9.37809
9.3842
9.38961
9.39447
9.39892
9.4029
9.40654
9.41008
9.41359
9.41683
9.41978
9.4225
9.42486
9.42688
9.42859
9.42984
9.43063
9.43101
5.14903
5.16179
5.18891
5.23404
5.30368
5.40855
5.56421
5.78596
6.06581
6.34181
6.60906
6.87455
7.11456
7.33675
7.55125
7.74361
7.92052
8.08746
8.22695
8.34232
8.44494
8.5414
8.62623
8.70234
8.77307
8.83449
8.88875
8.93844
8.98137
9.01968
9.05696
9.09452
9.12841
9.15911
9.18786
9.21306
9.23566
9.25676
9.27533
9.29208
9.30755
9.32038
9.33091
9.34009
9.34855
9.35595
9.36259
9.36876
9.37417
9.37901
9.38351
9.38746
9.39106
9.39463
9.39829
9.40162
9.40465
9.40748
9.40991
9.412
9.4138
9.4151
9.4159
9.41627
4.9982
5.00986
5.03479
5.07667
5.14238
5.24405
5.40124
5.63763
5.95004
6.24395
6.52358
6.80713
7.05518
7.28298
7.50839
7.7055
7.88681
8.06321
8.20528
8.31917
8.4211
8.52009
8.60532
8.68156
8.75421
8.8158
8.86987
8.92045
8.96296
9.00036
9.03766
9.07689
9.11135
9.14231
9.17195
9.19731
9.21996
9.24161
9.2603
9.27717
9.29323
9.30612
9.31638
9.32538
9.33391
9.34125
9.34783
9.35409
9.35947
9.36428
9.36884
9.37274
9.37626
9.37985
9.3837
9.38711
9.3902
9.39317
9.39566
9.3978
9.39972
9.40107
9.40187
9.40223
4.85273
4.86318
4.88562
4.92366
4.98434
5.08087
5.23703
5.48774
5.8413
6.15189
6.44144
6.74642
7.00053
7.23182
7.4704
7.67072
7.8551
8.04366
8.18754
8.29831
8.39863
8.50117
8.58628
8.66208
8.73734
8.79872
8.8522
8.9041
8.94589
8.9819
9.019
9.06053
9.0954
9.12639
9.1572
9.18254
9.20504
9.22745
9.24611
9.263
9.27988
9.29276
9.30263
9.31137
9.32005
9.32728
9.33374
9.34016
9.34548
9.35021
9.35488
9.35872
9.3621
9.3657
9.36981
9.37328
9.3764
9.37954
9.38207
9.38425
9.38633
9.38772
9.3885
9.38885
4.71262
4.72176
4.74146
4.77516
4.82975
4.91906
5.07087
5.33447
5.74147
6.06588
6.36139
6.69328
6.95048
7.1822
7.43777
7.63901
7.82436
8.02929
8.17377
8.27937
8.37692
8.48476
8.56898
8.6435
8.72255
8.78316
8.83546
8.88944
8.93013
8.96414
9.00073
9.04553
9.08053
9.11119
9.14363
9.1687
9.1908
9.21426
9.23272
9.24946
9.2675
9.28028
9.2896
9.29798
9.30693
9.31399
9.32029
9.32695
9.33216
9.33678
9.34162
9.34535
9.34855
9.35212
9.35658
9.36009
9.3632
9.36657
9.36911
9.37131
9.37358
9.37501
9.37576
9.37609
4.57783
4.58558
4.60238
4.6313
4.67885
4.75881
4.90208
5.17522
5.65331
5.9862
6.28163
6.64907
6.90487
7.13264
7.41138
7.6101
7.79324
8.02089
8.16405
8.26197
8.35525
8.47117
8.55329
8.62534
8.71004
8.76901
8.8193
8.8766
8.91566
8.94693
8.98255
9.03206
9.0667
9.0965
9.1313
9.15573
9.17706
9.20211
9.22007
9.2364
9.25613
9.26866
9.27722
9.28513
9.29456
9.30135
9.30739
9.31445
9.31949
9.32391
9.32904
9.33261
9.33556
9.33905
9.34402
9.34751
9.35057
9.35424
9.35676
9.35893
9.36148
9.36292
9.36362
9.36392
4.4483
4.45464
4.46839
4.49224
4.53193
4.60044
4.73018
5.00637
5.58074
5.91302
6.19953
6.61582
6.86352
7.08112
7.39261
7.5837
7.75989
8.0197
8.15841
8.24571
8.33271
8.4609
8.5391
8.60695
8.70016
8.75619
8.80328
8.8658
8.90246
8.93013
8.96403
9.02039
9.05387
9.08204
9.12035
9.14357
9.16362
9.19106
9.20811
9.22363
9.24585
9.25787
9.26544
9.27272
9.28294
9.28934
9.29497
9.30267
9.30741
9.31155
9.31715
9.32049
9.3231
9.32644
9.33213
9.33552
9.33844
9.34255
9.34498
9.34707
9.35
9.35142
9.35205
9.3523
4.32398
4.32887
4.33952
4.35808
4.38931
4.44447
4.55497
4.82286
5.52925
5.84644
6.11144
6.5965
6.82621
7.02492
7.38357
7.55957
7.72182
8.0275
8.15683
8.23019
8.3081
8.45479
8.5263
8.5875
8.69346
8.74459
8.78683
8.85739
8.89049
8.9136
8.94467
9.01092
9.04199
9.06748
9.111
9.13219
9.15023
9.18126
9.19679
9.21094
9.23677
9.24788
9.2542
9.26063
9.27213
9.2779
9.28295
9.29162
9.29592
9.29962
9.30594
9.30895
9.31114
9.31421
9.32093
9.32409
9.32676
9.33149
9.33374
9.33566
9.33913
9.34048
9.34102
9.34122
4.20476
4.20821
4.21575
4.22894
4.2513
4.29159
4.37678
4.61773
5.50632
5.78629
6.01231
6.59528
6.79262
6.96037
7.38727
7.53742
7.67571
8.0469
8.15909
8.21504
8.27992
8.45402
8.51476
8.56587
8.69077
8.73411
8.76918
8.85188
8.87973
8.89727
8.92378
9.00425
9.03102
9.05233
9.10358
9.12152
9.13655
9.17294
9.18606
9.19801
9.22909
9.23866
9.24345
9.24874
9.26217
9.26703
9.27122
9.28135
9.28497
9.28805
9.29545
9.29798
9.29964
9.30228
9.31047
9.3132
9.31545
9.32109
9.32301
9.32465
9.32889
9.33008
9.33049
9.33064
4.09054
4.09258
4.09705
4.10487
4.11822
4.14261
4.19676
4.38154
5.52202
5.73211
5.89546
6.61796
6.76234
6.88261
7.40792
7.51698
7.61722
8.08145
8.16474
8.2
8.24623
8.4603
8.50433
8.54063
8.69324
8.7246
8.74936
8.85001
8.87008
8.88109
8.90047
9.00119
9.02086
9.036
9.09853
9.1115
9.12215
9.16643
9.17587
9.18447
9.22308
9.23014
9.23315
9.23686
9.25318
9.25667
9.25963
9.27193
9.27454
9.27671
9.28572
9.28754
9.28858
9.29052
9.30081
9.30282
9.30443
9.31138
9.31278
9.31396
9.31929
9.32018
9.32045
9.32054
3.9812
3.98187
3.98334
3.98593
3.99034
3.99847
4.01723
4.10164
5.58964
5.68294
5.75211
6.67232
6.73475
6.78536
7.4512
7.49793
7.54072
8.13604
8.17286
8.185
8.20452
8.47591
8.49478
8.50992
8.70245
8.71587
8.72613
8.85277
8.86137
8.86515
8.87358
9.00285
9.01141
9.01771
9.09652
9.10206
9.10648
9.16217
9.16618
9.16982
9.21912
9.22222
9.22325
9.2248
9.24531
9.24679
9.24802
9.26348
9.26459
9.26549
9.27683
9.27761
9.27797
9.27881
9.29204
9.29292
9.29359
9.30241
9.30301
9.30351
9.31036
9.31076
9.31085
9.31088
)
;

boundaryField
{
    left
    {
        type            zeroGradient;
    }
    right
    {
        type            zeroGradient;
    }
    interface
    {
        type            fixedValue;
        value           nonuniform List<scalar> 
64
(
3.92773
3.92773
3.92773
3.92773
3.92773
3.92773
3.92773
3.92773
5.65955
5.65955
5.65955
6.72157
6.72157
6.72157
7.48872
7.48872
7.48872
8.17748
8.17748
8.17748
8.17748
8.49022
8.49022
8.49022
8.71169
8.71169
8.71169
8.85724
8.85724
8.85724
8.85724
9.00685
9.00685
9.00685
9.09747
9.09747
9.09747
9.16146
9.16146
9.16146
9.2184
9.2184
9.2184
9.2184
9.24197
9.24197
9.24197
9.25973
9.25973
9.25973
9.27276
9.27276
9.27276
9.27276
9.28808
9.28808
9.28808
9.29824
9.29824
9.29824
9.30616
9.30616
9.30616
9.30616
)
;
    }
    bottom
    {
        type            fixedValue;
        value           uniform 10;
    }
    defaultFaces
    {
        type            empty;
    }
}


// ************************************************************************* //
