/*--------------------------------*- C++ -*----------------------------------*\
| =========                 |                                                 |
| \\      /  F ield         | OpenFOAM: The Open Source CFD Toolbox           |
|  \\    /   O peration     | Version:  5.x                                   |
|   \\  /    A nd           | Web:      www.OpenFOAM.org                      |
|    \\/     M anipulation  |                                                 |
\*---------------------------------------------------------------------------*/
FoamFile
{
    version     2.0;
    format      ascii;
    class       volScalarField;
    location    "7.6";
    object      T;
}
// * * * * * * * * * * * * * * * * * * * * * * * * * * * * * * * * * * * * * //

dimensions      [0 0 0 1 0 0 0];

internalField   nonuniform List<scalar> 
2048
(
9.85521
9.8559
9.85728
9.85932
9.86201
9.86531
9.86916
9.87351
9.87828
9.8834
9.88878
9.89433
9.89998
9.90563
9.91121
9.91667
9.92196
9.92702
9.93184
9.93639
9.94066
9.94464
9.94835
9.95178
9.95495
9.95788
9.96057
9.96304
9.96531
9.96739
9.96931
9.97106
9.97267
9.97414
9.97548
9.97671
9.97783
9.97884
9.97976
9.98059
9.98134
9.98201
9.98261
9.98314
9.98362
9.98404
9.9844
9.98473
9.98501
9.98525
9.98547
9.98565
9.98581
9.98595
9.98607
9.98617
9.98625
9.98632
9.98638
9.98643
9.98646
9.98649
9.98651
9.98651
9.57139
9.57344
9.57753
9.58359
9.59157
9.60135
9.61278
9.6257
9.63987
9.65508
9.67106
9.68755
9.70429
9.72106
9.73763
9.75381
9.76947
9.78446
9.79872
9.81218
9.8248
9.83658
9.84753
9.85767
9.86703
9.87566
9.8836
9.8909
9.8976
9.90375
9.90939
9.91456
9.91931
9.92365
9.92762
9.93124
9.93454
9.93753
9.94025
9.9427
9.94491
9.94688
9.94865
9.95022
9.95161
9.95285
9.95393
9.95488
9.95571
9.95643
9.95706
9.95761
9.95808
9.95848
9.95883
9.95912
9.95937
9.95957
9.95974
9.95988
9.95999
9.96006
9.96012
9.96014
9.29843
9.3018
9.30851
9.31848
9.33159
9.34768
9.3665
9.38777
9.41112
9.43616
9.46247
9.48961
9.51716
9.54471
9.57192
9.59848
9.62414
9.6487
9.67203
9.69403
9.71464
9.73387
9.75173
9.76826
9.78351
9.79756
9.81049
9.82236
9.83326
9.84327
9.85245
9.86087
9.86858
9.87565
9.88211
9.888
9.89337
9.89825
9.90266
9.90665
9.91024
9.91345
9.91632
9.91887
9.92113
9.92313
9.92489
9.92643
9.92778
9.92895
9.92997
9.93085
9.93161
9.93226
9.93282
9.93329
9.93369
9.93402
9.9343
9.93452
9.93469
9.93482
9.9349
9.93494
9.03507
9.03973
9.049
9.06278
9.08093
9.10321
9.1293
9.1588
9.1912
9.22595
9.26244
9.30005
9.33819
9.37631
9.41391
9.45056
9.48593
9.51974
9.5518
9.582
9.61027
9.63661
9.66104
9.68364
9.70448
9.72366
9.7413
9.7575
9.77237
9.78601
9.79853
9.81001
9.82053
9.83017
9.83898
9.84702
9.85434
9.86099
9.86702
9.87245
9.87734
9.88172
9.88563
9.8891
9.89217
9.89488
9.89727
9.89936
9.90118
9.90277
9.90415
9.90534
9.90637
9.90725
9.908
9.90864
9.90918
9.90963
9.91
9.9103
9.91053
9.9107
9.91081
9.91087
8.78029
8.7862
8.79798
8.81551
8.83862
8.86702
8.90033
8.93801
8.97942
9.02382
9.07044
9.11845
9.16708
9.21561
9.26341
9.30993
9.35474
9.39751
9.43801
9.47609
9.51168
9.5448
9.57548
9.60383
9.62995
9.65397
9.67605
9.69631
9.71491
9.73197
9.74762
9.76198
9.77514
9.78719
9.79822
9.80828
9.81745
9.82577
9.83331
9.8401
9.84621
9.85168
9.85655
9.86088
9.86471
9.86808
9.87105
9.87364
9.8759
9.87787
9.87958
9.88106
9.88233
9.88342
9.88435
9.88514
9.88581
9.88636
9.88682
9.88719
9.88747
9.88768
9.88782
9.88789
8.53324
8.54038
8.55461
8.57582
8.60384
8.63833
8.67883
8.72471
8.77516
8.82926
8.88602
8.94443
9.0035
9.06236
9.12022
9.17643
9.23047
9.28195
9.33059
9.37625
9.41885
9.45841
9.49502
9.5288
9.55989
9.58846
9.61469
9.63876
9.66085
9.68111
9.69969
9.71674
9.73238
9.7467
9.7598
9.77176
9.78266
9.79255
9.80149
9.80956
9.81681
9.82329
9.82906
9.83418
9.83871
9.84269
9.84618
9.84924
9.8519
9.85422
9.85622
9.85795
9.85944
9.86072
9.86181
9.86274
9.86352
9.86417
9.8647
9.86513
9.86547
9.86571
9.86587
9.86595
8.29321
8.30155
8.31818
8.34303
8.3759
8.41646
8.46419
8.51832
8.57791
8.64181
8.70881
8.77766
8.8472
8.91634
8.98417
9.04993
9.113
9.17294
9.22946
9.28239
9.33167
9.37737
9.41958
9.45847
9.49422
9.52705
9.55717
9.58479
9.61012
9.63335
9.65467
9.67423
9.69218
9.70862
9.72367
9.73741
9.74992
9.76127
9.77154
9.7808
9.7891
9.79652
9.80312
9.80897
9.81413
9.81867
9.82264
9.82612
9.82914
9.83176
9.83403
9.83599
9.83767
9.83912
9.84035
9.84139
9.84227
9.84301
9.84361
9.8441
9.84447
9.84475
9.84493
9.84502
8.05965
8.06915
8.08813
8.11653
8.15421
8.20084
8.25583
8.31833
8.38719
8.46106
8.53844
8.61786
8.69791
8.77734
8.85508
8.93025
9.00217
9.07036
9.13448
9.19439
9.25005
9.30155
9.34904
9.39273
9.43285
9.46964
9.50337
9.53428
9.56262
9.58861
9.61247
9.63437
9.65447
9.67289
9.68975
9.70515
9.71917
9.73189
9.74339
9.75375
9.76304
9.77132
9.77868
9.7852
9.79093
9.79597
9.80038
9.80422
9.80756
9.81046
9.81296
9.81512
9.81697
9.81856
9.81991
9.82106
9.82203
9.82283
9.8235
9.82403
9.82445
9.82475
9.82495
9.82505
7.83211
7.84272
7.86396
7.89584
7.93827
7.99094
8.05326
8.12426
8.2026
8.28665
8.37463
8.46477
8.55544
8.64517
8.73277
8.81724
8.89785
8.97406
9.04553
9.11212
9.17384
9.23082
9.28327
9.33145
9.37562
9.4161
9.45317
9.48712
9.51824
9.54678
9.57298
9.59705
9.61914
9.63941
9.65797
9.67491
9.69034
9.70434
9.71698
9.72836
9.73855
9.74763
9.75569
9.7628
9.76906
9.77455
9.77934
9.78351
9.78713
9.79027
9.79297
9.7953
9.7973
9.79901
9.80047
9.8017
9.80274
9.80361
9.80433
9.8049
9.80535
9.80568
9.80589
9.806
7.61022
7.62189
7.6453
7.68054
7.72762
7.78632
7.85604
7.93572
8.02378
8.11828
8.21711
8.31817
8.41957
8.51965
8.61707
8.71074
8.79987
8.88388
8.96244
9.03542
9.10288
9.16502
9.22211
9.27446
9.3224
9.36628
9.40643
9.44317
9.47684
9.50772
9.53609
9.56215
9.58611
9.60809
9.62822
9.64661
9.66335
9.67853
9.69224
9.70457
9.71559
9.7254
9.73408
9.74174
9.74846
9.75434
9.75947
9.76393
9.76779
9.77113
9.77401
9.77648
9.7786
9.78042
9.78196
9.78327
9.78437
9.78529
9.78605
9.78666
9.78713
9.78748
9.78771
9.78782
7.39373
7.40638
7.43183
7.47027
7.52188
7.58656
7.66377
7.75232
7.8504
7.95568
8.06565
8.17786
8.29012
8.4006
8.50781
8.61059
8.70807
8.79967
8.88504
8.96411
9.037
9.10397
9.16538
9.22159
9.27301
9.32002
9.36298
9.40229
9.43828
9.4713
9.50165
9.52957
9.55524
9.57882
9.60043
9.62016
9.63812
9.65441
9.6691
9.6823
9.69408
9.70455
9.71381
9.72194
9.72908
9.7353
9.74072
9.74543
9.7495
9.75301
9.75603
9.75862
9.76084
9.76274
9.76435
9.76572
9.76688
9.76784
9.76863
9.76927
9.76976
9.77013
9.77037
9.77049
7.18242
7.19597
7.22329
7.26475
7.32073
7.39131
7.47607
7.57373
7.68216
7.7986
7.92005
8.04366
8.16695
8.28787
8.40483
8.5166
8.62227
8.72124
8.81317
8.89802
8.97599
9.04747
9.11288
9.17267
9.22728
9.27714
9.32268
9.36431
9.40242
9.43739
9.46955
9.49917
9.52644
9.5515
9.57448
9.59547
9.61457
9.63187
9.64748
9.66148
9.67396
9.68503
9.69479
9.70336
9.71085
9.71737
9.72304
9.72795
9.73219
9.73584
9.73898
9.74167
9.74397
9.74593
9.7476
9.74902
9.75021
9.75121
9.75202
9.75269
9.7532
9.75358
9.75383
9.75395
6.97617
6.9905
7.0195
7.06374
7.12385
7.20022
7.29258
7.39961
7.51881
7.64685
7.78015
7.91543
8.04989
8.18129
8.30796
8.4286
8.5423
8.64842
8.74663
8.83694
8.91967
8.99532
9.06441
9.12748
9.18501
9.23749
9.28536
9.32908
9.36909
9.40582
9.43964
9.47083
9.49958
9.52603
9.55029
9.57244
9.5926
9.61085
9.6273
9.64204
9.65516
9.66677
9.67698
9.68592
9.69371
9.70049
9.70636
9.71144
9.71582
9.71959
9.72282
9.72558
9.72794
9.72995
9.73166
9.73311
9.73434
9.73536
9.7362
9.73688
9.7374
9.73779
9.73805
9.73818
6.77488
6.78987
6.82031
6.86702
6.93099
7.01297
7.11297
7.22966
7.36011
7.50024
7.64582
7.79305
7.93881
8.08071
8.21703
8.34643
8.46798
8.58103
8.68523
8.78067
8.86781
8.9473
9.01978
9.08583
9.14603
9.20086
9.25083
9.29644
9.33815
9.37646
9.41178
9.44441
9.47455
9.50229
9.52774
9.55099
9.57213
9.59126
9.60849
9.62391
9.63762
9.64971
9.66031
9.66957
9.67762
9.6846
9.69064
9.69586
9.70035
9.7042
9.7075
9.71031
9.71271
9.71476
9.7165
9.71797
9.71922
9.72025
9.72111
9.7218
9.72234
9.72274
9.723
9.72313
6.57852
6.59402
6.62563
6.67445
6.7419
6.82924
6.9369
7.06359
7.20584
7.35863
7.51692
7.6764
7.83359
7.98598
8.13186
8.26987
8.3991
8.51887
8.62879
8.72901
8.8202
8.9032
8.97875
9.04752
9.11013
9.1671
9.21895
9.26623
9.30945
9.34916
9.38583
9.4198
9.45122
9.48018
9.50676
9.53102
9.55307
9.57302
9.59097
9.60702
9.62125
9.63378
9.64473
9.65425
9.6625
9.66965
9.67583
9.68115
9.68572
9.68963
9.69297
9.69582
9.69825
9.70031
9.70207
9.70356
9.70481
9.70586
9.70673
9.70743
9.70798
9.70838
9.70865
9.70878
6.38709
6.40293
6.43538
6.48589
6.55637
6.64875
6.76403
6.9011
7.05583
7.22192
7.39339
7.5654
7.7341
7.89694
8.05227
8.19875
8.33547
8.46176
8.5771
8.68174
8.77662
8.86279
8.94112
9.01235
9.07714
9.13603
9.18955
9.2383
9.28284
9.32377
9.36166
9.39688
9.42951
9.45961
9.48724
9.51245
9.53535
9.55606
9.57467
9.59129
9.60601
9.61893
9.63016
9.63989
9.64832
9.65559
9.66187
9.66726
9.67189
9.67584
9.6792
9.68207
9.6845
9.68657
9.68833
9.68983
9.69109
9.69214
9.69301
9.69372
9.69428
9.69468
9.69495
9.69509
6.2006
6.21661
6.24956
6.30126
6.37423
6.47119
6.59401
6.74189
6.90992
7.09002
7.27514
7.45997
7.64022
7.81341
7.97808
8.13284
8.27687
8.40951
8.53
8.63866
8.73682
8.82585
8.90667
8.98011
9.04688
9.10747
9.16247
9.21251
9.25817
9.30014
9.33913
9.37551
9.40929
9.44047
9.4691
9.4952
9.51888
9.54029
9.55951
9.57666
9.59183
9.60508
9.61655
9.62645
9.635
9.64237
9.64871
9.65415
9.6588
9.66277
9.66614
9.66901
9.67143
9.6735
9.67526
9.67675
9.67801
9.67906
9.67994
9.68065
9.68121
9.68162
9.68189
9.68202
6.0191
6.03508
6.06815
6.12049
6.19531
6.2963
6.42647
6.58567
6.76801
6.96289
7.16212
7.36006
7.55185
7.73523
7.9091
8.07194
8.2231
8.36195
8.48729
8.59953
8.70056
8.79214
8.87519
8.95059
9.01916
9.08127
9.13755
9.18871
9.2353
9.27814
9.3181
9.35559
9.39047
9.42267
9.45225
9.47918
9.50358
9.52564
9.54543
9.56307
9.57865
9.5922
9.60385
9.61387
9.6225
9.62992
9.6363
9.64177
9.64643
9.6504
9.65376
9.65661
9.65901
9.66106
9.66281
9.66429
9.66555
9.6666
9.66747
9.66818
9.66874
9.66915
9.66943
9.66956
5.84264
5.8584
5.89119
5.94358
6.01947
6.12377
6.261
6.43209
6.63004
6.84054
7.05428
7.26563
7.46887
7.66218
7.84513
8.01581
8.1739
8.31892
8.44882
8.56414
8.6676
8.76146
8.84646
8.92361
8.99381
9.05727
9.11466
9.16678
9.21412
9.25763
9.29844
9.33702
9.37295
9.40613
9.43662
9.46431
9.48938
9.51205
9.53236
9.55044
9.56642
9.58023
9.59201
9.60209
9.61077
9.61822
9.6246
9.63008
9.63473
9.63868
9.64202
9.64483
9.6472
9.64922
9.65095
9.65242
9.65367
9.65471
9.65558
9.65628
9.65685
9.65726
9.65753
9.65767
5.6713
5.68664
5.71873
5.77051
5.84663
5.95335
6.09717
6.28079
6.49602
6.72301
6.95154
7.17667
7.39115
7.59404
7.78599
7.96422
8.12901
8.28027
8.41444
8.53227
8.63767
8.73358
8.82029
8.89896
8.9707
9.03532
9.09363
9.1466
9.19449
9.23846
9.28001
9.3197
9.35666
9.39075
9.42214
9.45053
9.47619
9.49944
9.52022
9.53872
9.55509
9.56911
9.58096
9.59106
9.59975
9.6072
9.61357
9.61903
9.62366
9.62757
9.63087
9.63364
9.63597
9.63795
9.63966
9.64111
9.64234
9.64337
9.64423
9.64493
9.6455
9.64591
9.64618
9.64632
5.50513
5.51986
5.55084
5.60133
5.67673
5.78476
5.9345
6.13132
6.36609
6.61039
6.85382
7.09322
7.31859
7.53053
7.73152
7.91691
8.08813
8.2459
8.38403
8.50367
8.61048
8.70832
8.79648
8.87643
8.94967
9.01529
9.07433
9.12808
9.17632
9.22049
9.26267
9.30355
9.34151
9.37646
9.40874
9.43777
9.46394
9.48776
9.50896
9.52783
9.5446
9.55882
9.57066
9.58072
9.58941
9.59683
9.60316
9.6086
9.61318
9.61704
9.6203
9.62301
9.62528
9.62722
9.6289
9.63033
9.63154
9.63256
9.63341
9.6341
9.63467
9.63509
9.63535
9.63549
5.34419
5.35812
5.38759
5.4361
5.50973
5.61779
5.77242
5.98315
6.24052
6.50281
6.76092
7.01535
7.25106
7.47131
7.68158
7.87364
8.0509
8.21575
8.35751
8.47809
8.58572
8.68549
8.77485
8.85581
8.93061
8.99705
9.0566
9.11112
9.15951
9.20359
9.24627
9.28851
9.32745
9.36317
9.39638
9.42597
9.45256
9.47696
9.49852
9.51772
9.53493
9.5493
9.56107
9.57102
9.5797
9.58706
9.59333
9.59874
9.60327
9.60706
9.61026
9.61291
9.6151
9.61699
9.61865
9.62006
9.62124
9.62224
9.62308
9.62377
9.62434
9.62475
9.62502
9.62515
5.18853
5.20149
5.22907
5.27493
5.34569
5.45223
5.61034
5.83556
6.11983
6.40046
6.67256
6.94325
7.18844
7.41594
7.63613
7.83413
8.01686
8.18984
8.33483
8.45527
8.56304
8.66498
8.75523
8.83688
8.91344
8.98047
9.04029
9.09568
9.14398
9.18759
9.23065
9.27454
9.31441
9.35077
9.38502
9.41506
9.44195
9.46698
9.48884
9.50829
9.52604
9.54053
9.55212
9.56191
9.57058
9.57786
9.58403
9.58942
9.59388
9.59758
9.60074
9.60331
9.60541
9.60724
9.60888
9.61026
9.61141
9.6124
9.61322
9.6139
9.61448
9.61489
9.61515
9.61528
5.03818
5.05003
5.07537
5.11792
5.18469
5.28795
5.44759
5.68759
6.00483
6.30357
6.58822
6.87726
7.1306
7.36385
7.59523
7.79812
7.98544
8.16829
8.31598
8.43492
8.54203
8.64672
8.73747
8.81936
8.89813
8.96546
9.02521
9.08174
9.12967
9.17237
9.21561
9.26166
9.30234
9.33916
9.37465
9.40499
9.43202
9.45782
9.47985
9.49948
9.51791
9.53247
9.54378
9.55333
9.56202
9.56919
9.57524
9.58063
9.58499
9.58859
9.5917
9.59418
9.59618
9.59794
9.59957
9.60092
9.60204
9.60301
9.60381
9.60448
9.60507
9.60549
9.60574
9.60585
4.89315
4.90376
4.92657
4.96522
5.02687
5.1249
5.28345
5.53793
5.89682
6.21242
6.5071
6.81793
7.07741
7.31423
7.55912
7.76533
7.95587
8.15141
8.301
8.4167
8.52219
8.63074
8.72141
8.80294
8.8847
8.9519
9.01112
9.06931
9.11655
9.15775
9.20093
9.2499
9.29122
9.3282
9.36527
9.39571
9.42266
9.44945
9.47152
9.49118
9.51055
9.52512
9.53599
9.54522
9.554
9.56102
9.5669
9.57232
9.57658
9.58004
9.58313
9.5855
9.58738
9.58906
9.5907
9.59201
9.59309
9.59405
9.59482
9.59548
9.59609
9.59651
9.59675
9.59686
4.75344
4.76271
4.78275
4.81698
4.87244
4.96312
5.11722
5.38473
5.79772
6.12727
6.42797
6.76616
7.02874
7.266
7.52834
7.73549
7.9271
8.13971
8.28995
8.40027
8.50293
8.61718
8.70694
8.78722
8.87326
8.9397
8.99776
9.05849
9.10458
9.14358
9.18634
9.2394
9.28099
9.31772
9.35694
9.38717
9.41373
9.4419
9.46378
9.48328
9.50398
9.51844
9.5287
9.53751
9.5465
9.55332
9.55897
9.5645
9.56861
9.57191
9.575
9.57725
9.57898
9.58057
9.58225
9.58352
9.58454
9.5855
9.58624
9.58688
9.58752
9.58794
9.58816
9.58826
4.61901
4.62689
4.64396
4.67334
4.72164
4.80282
4.94824
5.22536
5.71033
6.0484
6.34899
6.72334
6.98444
7.21766
7.50379
7.70833
7.89774
8.13403
8.28291
8.38523
8.48348
8.60638
8.69395
8.77167
8.86406
8.92878
8.98474
9.04944
9.09376
9.1297
9.17147
9.23037
9.27165
9.30747
9.34978
9.37933
9.40505
9.43524
9.4566
9.47561
9.49825
9.51243
9.52185
9.53012
9.53953
9.54605
9.5514
9.55714
9.56105
9.56415
9.5673
9.56941
9.57097
9.57245
9.57421
9.57542
9.57638
9.57734
9.57804
9.57866
9.57935
9.57976
9.57997
9.58006
4.48983
4.49626
4.51024
4.53446
4.57478
4.64433
4.77599
5.05615
5.63864
5.976
6.2675
6.69155
6.94433
7.16716
7.48691
7.68358
7.86587
8.13567
8.27994
8.37118
8.46289
8.59891
8.68232
8.75562
8.85749
8.91905
8.97158
9.04243
9.08409
9.11596
9.15587
9.22316
9.26316
9.29714
9.34396
9.37215
9.39638
9.42958
9.44991
9.46798
9.49345
9.50707
9.5154
9.52296
9.53309
9.5392
9.54413
9.55025
9.5539
9.55672
9.56002
9.56196
9.5633
9.56466
9.56656
9.5677
9.56857
9.56957
9.57021
9.57078
9.57156
9.57195
9.57214
9.57221
4.36582
4.37078
4.38161
4.40046
4.43218
4.48818
4.6003
4.87199
5.58821
5.91017
6.17977
6.67381
6.90818
7.1117
7.47986
7.66098
7.82892
8.14652
8.28103
8.35771
8.43992
8.59565
8.67194
8.73816
8.85419
8.91041
8.95765
9.03788
9.07556
9.10223
9.13892
9.21828
9.25548
9.28632
9.33977
9.36557
9.38743
9.42512
9.44369
9.46015
9.48973
9.50234
9.50929
9.51592
9.52722
9.53274
9.5371
9.54385
9.54712
9.54959
9.55316
9.55488
9.55598
9.55717
9.55931
9.56033
9.56109
9.56216
9.56273
9.56324
9.56414
9.56451
9.56466
9.56472
4.24689
4.2504
4.25806
4.27146
4.29417
4.33506
4.4215
4.66584
5.56664
5.85075
6.0807
6.6744
6.87571
7.04753
7.48577
7.64026
7.78347
8.16928
8.28597
8.34446
8.41299
8.59791
8.6627
8.7181
8.85508
8.90276
8.94209
9.03641
9.06816
9.08841
9.11983
9.21647
9.24857
9.27444
9.33763
9.35955
9.3778
9.42216
9.43788
9.45177
9.48733
9.49819
9.50346
9.50888
9.52201
9.52664
9.5302
9.53796
9.54069
9.54269
9.54673
9.54814
9.54897
9.54994
9.55244
9.55331
9.55391
9.55511
9.55557
9.556
9.55708
9.5574
9.55752
9.55756
4.13295
4.13503
4.13957
4.14752
4.16107
4.18583
4.24077
4.42812
5.58413
5.79728
5.96348
6.69923
6.84647
6.9697
7.50896
7.62114
7.72501
8.20767
8.2943
8.33117
8.38004
8.60749
8.65444
8.69386
8.86145
8.89596
8.92381
9.03887
9.06178
9.07452
9.09755
9.21872
9.24234
9.26078
9.33814
9.35402
9.36697
9.42109
9.43245
9.44241
9.48655
9.49458
9.49788
9.50166
9.51755
9.52087
9.52335
9.53264
9.53459
9.53596
9.54074
9.54174
9.54225
9.54294
9.54598
9.5466
9.54702
9.54841
9.54874
9.54904
9.55038
9.55062
9.55069
9.55072
4.02388
4.02456
4.02606
4.02868
4.03317
4.04142
4.06045
4.14603
5.65417
5.74881
5.81919
6.75624
6.81988
6.87176
7.55528
7.60332
7.64769
8.26678
8.30508
8.31778
8.33843
8.62686
8.64698
8.66345
8.87507
8.88983
8.9014
9.04644
9.05627
9.06064
9.07069
9.22639
9.23668
9.24438
9.3421
9.3489
9.35429
9.42248
9.42733
9.43153
9.48786
9.49139
9.49252
9.49408
9.514
9.51541
9.51642
9.52796
9.52879
9.52934
9.53523
9.53565
9.53583
9.53611
9.53994
9.54021
9.54037
9.54207
9.5422
9.54233
9.54404
9.54414
9.54416
9.54417
)
;

boundaryField
{
    left
    {
        type            zeroGradient;
    }
    right
    {
        type            zeroGradient;
    }
    interface
    {
        type            fixedValue;
        value           nonuniform List<scalar> 
64
(
3.97054
3.97054
3.97054
3.97054
3.97054
3.97054
3.97054
3.97054
5.72575
5.72575
5.72575
6.80719
6.80719
6.80719
7.59471
7.59471
7.59471
8.31102
8.31102
8.31102
8.31102
8.64342
8.64342
8.64342
8.88692
8.88692
8.88692
9.05371
9.05371
9.05371
9.05371
9.23399
9.23399
9.23399
9.34644
9.34644
9.34644
9.42484
9.42484
9.42484
9.48989
9.48989
9.48989
9.48989
9.51275
9.51275
9.51275
9.52596
9.52596
9.52596
9.53268
9.53268
9.53268
9.53268
9.53708
9.53708
9.53708
9.53901
9.53901
9.53901
9.54098
9.54098
9.54098
9.54098
)
;
    }
    bottom
    {
        type            fixedValue;
        value           uniform 10;
    }
    defaultFaces
    {
        type            empty;
    }
}


// ************************************************************************* //
