/*--------------------------------*- C++ -*----------------------------------*\
| =========                 |                                                 |
| \\      /  F ield         | OpenFOAM: The Open Source CFD Toolbox           |
|  \\    /   O peration     | Version:  5.x                                   |
|   \\  /    A nd           | Web:      www.OpenFOAM.org                      |
|    \\/     M anipulation  |                                                 |
\*---------------------------------------------------------------------------*/
FoamFile
{
    version     2.0;
    format      ascii;
    class       volScalarField;
    location    "1.6";
    object      gradTx;
}
// * * * * * * * * * * * * * * * * * * * * * * * * * * * * * * * * * * * * * //

dimensions      [0 -1 0 1 0 0 0];

internalField   nonuniform List<scalar> 
2048
(
0.0155104
0.0463092
0.0764373
0.1054
0.132649
0.157606
0.179683
0.198342
0.213152
0.223839
0.230319
0.232705
0.231284
0.226486
0.218832
0.208892
0.197241
0.184426
0.170943
0.157221
0.143615
0.130405
0.117798
0.105936
0.0949092
0.0847593
0.0754952
0.0670986
0.0595322
0.0527453
0.0466793
0.0412715
0.0364588
0.0321802
0.0283786
0.0250019
0.0220035
0.0193422
0.0169816
0.01489
0.0130395
0.0114053
0.00996551
0.00870039
0.00759198
0.00662385
0.00578079
0.00504874
0.00441463
0.00386628
0.00339232
0.00298209
0.00262557
0.00231333
0.00203653
0.00178701
0.00155735
0.0013411
0.00113282
0.000928281
0.00072443
0.000519378
0.00031248
0.000104286
0.0460362
0.137464
0.22694
0.313013
0.394054
0.46832
0.534034
0.589554
0.633563
0.665227
0.684293
0.691107
0.686554
0.671936
0.648839
0.618978
0.584081
0.545785
0.50557
0.46471
0.424256
0.385031
0.347641
0.312501
0.279865
0.249851
0.222478
0.197685
0.175358
0.155342
0.13746
0.121525
0.107347
0.094745
0.0835489
0.0736046
0.0647742
0.0569361
0.0499836
0.043823
0.0383723
0.033559
0.0293187
0.0255933
0.0223299
0.0194802
0.0169993
0.0148458
0.0129811
0.0113693
0.00997685
0.00877228
0.00772599
0.0068101
0.00599846
0.00526682
0.00459318
0.00395829
0.00334606
0.00274392
0.00214282
0.00153703
0.000924334
0.000308115
0.0757119
0.226123
0.373454
0.515371
0.649183
0.771953
0.88064
0.97241
1.04498
1.0969
1.12774
1.13812
1.12959
1.10438
1.06522
1.015
0.956633
0.892851
0.826105
0.758497
0.691743
0.627178
0.565772
0.508179
0.454784
0.40576
0.361112
0.320725
0.284396
0.251861
0.222821
0.196959
0.173962
0.153527
0.135375
0.119253
0.104936
0.0922276
0.0809535
0.070963
0.0621235
0.0543181
0.0474428
0.0414038
0.0361157
0.0314999
0.0274838
0.0239997
0.020985
0.0183812
0.0161339
0.0141918
0.0125067
0.011033
0.00972795
0.00855163
0.00746779
0.00644462
0.00545555
0.00447993
0.00350315
0.00251583
0.00151207
0.000502749
0.104783
0.313052
0.517339
0.714515
0.90084
1.0721
1.22385
1.35187
1.45276
1.52435
1.56603
1.57876
1.56487
1.52767
1.47112
1.39943
1.31673
1.22687
1.1333
1.03892
0.946093
0.856619
0.771792
0.692455
0.619087
0.551873
0.490782
0.435621
0.386081
0.341779
0.302283
0.267144
0.235919
0.208184
0.183553
0.161677
0.142249
0.125
0.109697
0.0961337
0.084133
0.0735371
0.0642057
0.0560124
0.0488415
0.0425864
0.037148
0.0324342
0.0283595
0.0248444
0.0218144
0.0191999
0.0169349
0.014957
0.0132072
0.0116303
0.0101759
0.00879972
0.00746449
0.00614145
0.00481107
0.0034619
0.00208087
0.000690076
0.133395
0.398719
0.659472
0.911851
1.15108
1.37154
1.56714
1.732
1.86133
1.95213
2.00358
2.0171
1.99596
1.9448
1.86898
1.77413
1.66571
1.54875
1.42767
1.3062
1.18729
1.07317
0.965409
0.864972
0.77238
0.687788
0.61109
0.54199
0.480056
0.424768
0.375554
0.331822
0.292992
0.25852
0.22791
0.200723
0.176575
0.155131
0.136101
0.119233
0.104307
0.0911296
0.0795281
0.0693465
0.0604415
0.0526802
0.0459389
0.0401025
0.0350638
0.0307234
0.0269885
0.023772
0.0209913
0.0185679
0.0164271
0.0144985
0.0127177
0.0110273
0.00937917
0.00773599
0.00607351
0.00438074
0.00263518
0.000872107
0.161596
0.483305
0.800278
1.10821
1.40129
1.67234
1.91328
2.11616
2.27444
2.38408
2.44406
2.45643
2.42571
2.35808
2.26058
2.14043
2.0045
1.85906
1.70953
1.56042
1.41527
1.27669
1.14641
1.02549
0.91442
0.813265
0.721809
0.639623
0.566133
0.500668
0.442498
0.390879
0.345088
0.304456
0.26838
0.236334
0.207862
0.182571
0.160121
0.140218
0.122605
0.107057
0.0933734
0.0813717
0.0708838
0.0617526
0.053831
0.0469819
0.041078
0.0360013
0.0316419
0.0278967
0.0246676
0.0218607
0.0193858
0.0171577
0.0150974
0.0131343
0.0112086
0.00927335
0.00729967
0.00527928
0.00317951
0.00105068
0.189339
0.56672
0.939762
1.30389
1.65229
1.976
2.26451
2.50722
2.69535
2.82353
2.89061
2.8995
2.85634
2.76924
2.64719
2.49919
2.33365
2.15809
1.97896
1.80155
1.62993
1.46701
1.31465
1.17388
1.04509
0.928205
0.822856
0.728454
0.644264
0.569445
0.5031
0.444317
0.392221
0.346012
0.304984
0.268529
0.236128
0.207336
0.181769
0.159096
0.13903
0.121319
0.105739
0.092084
0.0801641
0.0697993
0.0608202
0.0530689
0.0463991
0.0406756
0.0357729
0.0315731
0.027964
0.024837
0.0220871
0.0196137
0.0173231
0.0151306
0.0129638
0.010765
0.00850017
0.00616564
0.00371885
0.00122762
0.21649
0.648612
1.07751
1.49867
1.90434
2.28351
2.62263
2.9077
3.12699
3.27347
3.34591
3.34854
3.28955
3.17948
3.02961
2.85091
2.65341
2.44592
2.23592
2.02947
1.83112
1.64402
1.47004
1.31009
1.16437
1.03262
0.914266
0.808532
0.714508
0.631175
0.557448
0.492233
0.43449
0.383285
0.337812
0.29739
0.261444
0.229485
0.201094
0.17591
0.153618
0.133945
0.116648
0.101503
0.0882992
0.0768351
0.0669199
0.0583756
0.0510378
0.0447555
0.0393893
0.0348084
0.0308874
0.0275042
0.0245389
0.0218757
0.0194052
0.0170282
0.0146578
0.0122239
0.00968681
0.00704876
0.0042586
0.00140484
0.242824
0.728375
1.21272
1.69183
2.15718
2.59539
2.98912
3.31989
3.5721
3.73662
3.81236
3.80535
3.72659
3.58956
3.40823
3.19573
2.96376
2.72243
2.48023
2.24396
2.01866
1.80759
1.61253
1.43415
1.27236
1.12664
0.996174
0.880002
0.777019
0.686017
0.60571
0.534799
0.472065
0.416435
0.36701
0.323044
0.283919
0.249115
0.218182
0.190732
0.16643
0.144987
0.126144
0.109666
0.0953219
0.0828895
0.0721568
0.0629256
0.0550147
0.0482588
0.0425065
0.0376156
0.0334495
0.0298731
0.0267521
0.0239549
0.0213561
0.0188404
0.0163048
0.0136643
0.0108724
0.00793832
0.00480449
0.00158431
0.26804
0.805162
1.3442
1.88216
2.41002
2.91172
3.36517
3.74597
4.03335
4.21559
4.29204
4.27138
4.16824
3.99981
3.78308
3.53351
3.26449
2.98736
2.7116
2.44479
2.19238
1.95767
1.74217
1.54617
1.36922
1.21045
1.0688
0.943084
0.832017
0.734196
0.648117
0.572247
0.505169
0.445669
0.39276
0.345652
0.303697
0.26635
0.233139
0.203656
0.177547
0.154511
0.134286
0.116623
0.101277
0.0880032
0.0765674
0.0667517
0.0583586
0.0512102
0.0451451
0.0400122
0.0356653
0.0319573
0.0287395
0.0258641
0.0231892
0.0205817
0.0179204
0.0151017
0.012071
0.0088446
0.00536252
0.00176815
0.291763
0.877909
1.47037
2.06798
2.66156
3.23216
3.75176
4.1881
4.51347
4.71291
4.78683
4.7477
4.61492
4.41015
4.15386
3.86389
3.55523
3.24036
2.92969
2.63164
2.35209
2.09419
1.85903
1.64636
1.45522
1.28436
1.13243
0.998063
0.879775
0.775986
0.684947
0.604857
0.534068
0.471228
0.415278
0.365399
0.320936
0.281329
0.246089
0.214789
0.187061
0.162598
0.14114
0.122434
0.106218
0.0922246
0.0801958
0.0698932
0.0611037
0.0536389
0.0473296
0.0420187
0.0375521
0.0337719
0.0305148
0.0276166
0.0249178
0.0222667
0.0195205
0.0165525
0.0132974
0.00977843
0.00593894
0.00195857
0.313559
0.945362
1.58935
2.24709
2.90995
3.55595
4.14971
4.64857
5.01533
5.23109
5.29839
5.23504
5.0666
4.82015
4.51999
4.18631
3.83553
3.48102
3.13412
2.80422
2.49761
2.21718
1.96329
1.73498
1.53068
1.34871
1.18743
1.04527
0.920607
0.811694
0.716518
0.632944
0.55906
0.493379
0.434795
0.382486
0.335809
0.294204
0.257166
0.224249
0.195074
0.169333
0.146779
0.127162
0.110204
0.0956078
0.0830912
0.072394
0.0632882
0.0555773
0.049087
0.043657
0.0391283
0.035333
0.0320922
0.0292251
0.026555
0.0239098
0.0211215
0.0180341
0.0145676
0.0107512
0.00654019
0.00215798
0.332951
1.00612
1.69893
2.41685
3.15278
3.88184
4.55974
5.1299
5.54211
5.77268
5.82816
5.73376
5.52283
5.22902
4.88066
4.50009
4.10489
3.70897
3.32451
2.96217
2.62881
2.32669
2.05518
1.8124
1.59604
1.40392
1.23418
1.08506
0.954844
0.84165
0.743173
0.656854
0.580466
0.512406
0.451553
0.397116
0.348493
0.30513
0.266507
0.232161
0.201693
0.174805
0.151278
0.130875
0.113296
0.0982104
0.0853066
0.0743014
0.0649532
0.0570598
0.0504455
0.0449498
0.0404128
0.0366568
0.0334859
0.0307022
0.0281128
0.0255244
0.0227399
0.0195649
0.0158989
0.0117746
0.00717275
0.00236889
0.349442
1.05868
1.79666
2.57416
3.38701
4.20806
4.98242
5.63498
6.09737
6.34028
6.37731
6.2438
5.98272
5.63561
5.23484
4.80445
4.36285
3.92385
3.50046
3.10516
2.74555
2.42288
2.13503
1.87905
1.65177
1.45048
1.27313
1.11784
0.982829
0.866188
0.765273
0.676954
0.598623
0.528601
0.465799
0.409494
0.359163
0.314263
0.274253
0.23865
0.207028
0.179103
0.154711
0.13364
0.115558
0.100092
0.0868969
0.0756646
0.0661407
0.058122
0.0514337
0.0459197
0.041424
0.0377594
0.0347095
0.032059
0.0296016
0.0271229
0.0243917
0.0211645
0.0173098
0.0128608
0.00784276
0.00259373
0.362538
1.10153
1.87996
2.7155
3.60895
4.5322
5.41823
6.16729
6.68525
6.93646
6.94673
6.76471
6.44492
6.03848
5.58136
5.09858
4.609
4.12546
3.6616
3.23279
2.84775
2.50597
2.20324
1.93546
1.69842
1.48888
1.30474
1.144
1.0049
0.885638
0.783196
0.693637
0.613876
0.542257
0.477774
0.419816
0.36799
0.321757
0.280542
0.243845
0.211192
0.182315
0.157148
0.135523
0.117056
0.101314
0.0879181
0.0765336
0.0668936
0.0587995
0.0520801
0.0465886
0.0421797
0.0386569
0.0357763
0.0333053
0.0310298
0.0287153
0.0260924
0.0228539
0.0188209
0.0140218
0.00855526
0.0028344
0.371779
1.1332
1.94615
2.83702
3.81421
4.85106
5.86749
6.73111
7.31066
7.56371
7.53688
7.29559
6.90758
6.43589
5.91897
5.38161
4.84312
4.31374
3.80752
3.34462
2.93537
2.57628
2.26031
1.98221
1.73661
1.51967
1.3295
1.16395
1.02136
0.90031
0.797333
0.707314
0.626575
0.553664
0.487713
0.428265
0.375133
0.327759
0.285509
0.247875
0.214297
0.184524
0.158655
0.136587
0.117854
0.101936
0.0884267
0.0769589
0.067254
0.0591277
0.0524129
0.0469765
0.0426963
0.0393652
0.0366994
0.034449
0.0324036
0.0303096
0.0278561
0.0246559
0.0204548
0.0152693
0.00931309
0.00309161
0.376765
1.15235
1.99264
2.93461
3.99765
5.1605
6.33025
7.33183
7.97948
8.22422
8.14777
7.83515
7.36828
6.82587
6.24639
5.65266
5.06519
4.48891
3.93783
3.44007
3.00841
2.6343
2.30678
2.01998
1.76701
1.54339
1.34791
1.17812
1.0325
0.910478
0.808093
0.718424
0.637062
0.563098
0.495842
0.435004
0.380743
0.332413
0.289279
0.25087
0.216458
0.185805
0.159285
0.136895
0.118017
0.102018
0.0884787
0.0769907
0.0672629
0.0591414
0.0524592
0.0471014
0.0429884
0.0399005
0.0374918
0.0354962
0.0337262
0.0319103
0.0296956
0.0265961
0.0222375
0.0166135
0.0101152
0.00336387
0.377188
1.15788
2.01704
3.00405
4.1534
5.45514
6.80613
7.9764
8.69887
8.9195
8.77881
8.38178
7.82392
7.2063
6.56247
5.91077
5.27548
4.65158
4.05202
3.5184
3.06698
2.68067
2.34324
2.04948
1.79035
1.56057
1.36049
1.18695
1.03853
0.916363
0.815906
0.727444
0.645662
0.570824
0.502375
0.440174
0.384958
0.335855
0.291968
0.252959
0.217796
0.186225
0.159083
0.136503
0.117612
0.101617
0.0881293
0.0766789
0.0669589
0.0588747
0.0522459
0.0469787
0.0430683
0.0402797
0.0381671
0.0364504
0.0349984
0.0335188
0.0316203
0.0287039
0.0241987
0.0180621
0.0109546
0.00364644
0.372858
1.14899
2.01728
3.04115
4.27483
5.72808
7.29399
8.67389
9.4777
9.64987
9.42878
8.93375
8.27061
7.575
6.86631
6.15476
5.47467
4.80285
4.1494
3.57855
3.1113
2.71625
2.3703
2.07149
1.80742
1.57169
1.36777
1.1909
1.03959
0.918106
0.821246
0.734895
0.652662
0.577085
0.507518
0.443878
0.387906
0.338223
0.293674
0.254278
0.218439
0.185837
0.158076
0.135471
0.116708
0.100788
0.0874328
0.0760733
0.0663772
0.0583609
0.0517996
0.0466195
0.042945
0.0405217
0.0387406
0.0373121
0.0362183
0.0351317
0.0336352
0.0310139
0.0263739
0.0196187
0.0118166
0.00393028
0.363716
1.12525
1.99181
3.04198
4.35469
5.97054
7.79137
9.43625
10.3271
10.4135
10.0958
9.48955
8.70329
7.92989
7.15748
6.38303
5.6639
4.9446
4.22898
3.61904
3.14184
2.74224
2.38847
2.08687
1.81913
1.57713
1.37032
1.1905
1.0357
0.915741
0.824649
0.741371
0.658285
0.582107
0.511482
0.446174
0.389705
0.339657
0.294469
0.254966
0.218532
0.184676
0.156269
0.133857
0.115381
0.0995769
0.0864423
0.0752241
0.0655475
0.0576329
0.0511481
0.0460303
0.0426231
0.0406485
0.0392298
0.0380778
0.0373822
0.0367417
0.0357377
0.0335677
0.0288066
0.02128
0.0126763
0.00420146
0.349851
1.08668
1.93971
3.00313
4.38527
6.1715
8.29369
10.2794
11.261
11.2049
10.7774
10.0484
9.11525
8.26927
7.43638
6.59309
5.84503
5.07972
4.28919
3.63779
3.15939
2.76024
2.39802
2.09651
1.82649
1.57705
1.36872
1.18637
1.02676
0.909151
0.826754
0.747566
0.662647
0.586094
0.514492
0.447054
0.390473
0.34031
0.294385
0.255173
0.218243
0.182752
0.153645
0.131725
0.113715
0.0980214
0.0852103
0.0741835
0.0644917
0.0567244
0.0503218
0.0452113
0.0421015
0.0406873
0.0396563
0.0387377
0.0384858
0.0383368
0.0379136
0.0364172
0.0315513
0.0230327
0.0134975
0.00444132
0.331493
1.03373
1.86083
2.92195
4.35868
6.31729
8.79301
11.2246
12.2978
12.0133
11.471
10.6113
9.49728
8.59214
7.70466
6.78092
6.02074
5.21254
4.32763
3.6319
3.1653
2.77242
2.39883
2.10144
1.83073
1.57134
1.36364
1.17932
1.01244
0.898013
0.828354
0.754311
0.665689
0.589245
0.516818
0.446413
0.39034
0.340364
0.293389
0.255068
0.217778
0.180038
0.150149
0.129153
0.111807
0.0961411
0.0837901
0.073008
0.0632196
0.0556703
0.0493561
0.0441542
0.0413709
0.0406729
0.0400477
0.0392731
0.0395262
0.0399017
0.0401309
0.039628
0.034678
0.0248492
0.014232
0.00462746
0.309012
0.967313
1.75582
2.79687
4.26729
6.3914
9.27615
12.3004
13.461
12.8191
12.1745
11.1818
9.83634
8.89881
7.96592
6.93998
6.19497
5.34935
4.34056
3.59737
3.1617
2.78169
2.39003
2.10283
1.83342
1.55938
1.35587
1.17042
0.992136
0.881734
0.830466
0.76263
0.667084
0.591773
0.518807
0.444005
0.389458
0.340051
0.291356
0.254849
0.217402
0.176458
0.14569
0.126238
0.109776
0.0939289
0.0822379
0.0717621
0.0617233
0.0545092
0.0482948
0.0428401
0.040411
0.0406515
0.0404401
0.0396516
0.0405053
0.0414197
0.0423305
0.0432847
0.0382791
0.0266811
0.0148199
0.0047358
0.282891
0.888747
1.62622
2.62764
4.10435
6.37439
9.72212
13.5448
14.7819
13.59
12.8877
11.7683
10.1135
9.19166
8.22665
7.05973
6.37332
5.49915
4.3223
3.52888
3.1519
2.79196
2.36961
2.10215
1.83656
1.53984
1.34639
1.1611
0.964901
0.859359
0.834428
0.773814
0.666102
0.59394
0.52094
0.439378
0.388036
0.339682
0.288014
0.25476
0.217455
0.171865
0.140125
0.123111
0.107767
0.0913377
0.0806168
0.0705236
0.0599689
0.0532862
0.0471946
0.0412359
0.0391868
0.0406847
0.0408814
0.03982
0.0414348
0.0428765
0.0444142
0.0474973
0.0424769
0.0284514
0.0151909
0.0047433
0.253706
0.799704
1.47439
2.41559
3.86469
6.24424
10.0985
15.0082
16.302
14.2756
13.614
12.3858
10.3013
9.47641
8.49745
7.12354
6.56385
5.6745
4.26437
3.41944
3.14078
2.80844
2.33376
2.10135
1.8429
1.51027
1.3365
1.15338
0.929296
0.829465
0.842013
0.789512
0.661427
0.596121
0.523902
0.431772
0.386375
0.339693
0.282882
0.255113
0.218391
0.166015
0.133252
0.119949
0.105966
0.0882605
0.0790038
0.0693912
0.0578844
0.0520568
0.0461308
0.0392904
0.0376431
0.0408555
0.0414359
0.0396944
0.0423425
0.0442657
0.0462268
0.0524107
0.0474343
0.0300431
0.0152669
0.00463092
0.222089
0.702115
1.30344
2.16374
3.54557
5.97725
10.3564
16.7573
18.0768
14.7994
14.3634
13.0593
10.3591
9.76373
8.7947
7.10595
6.77802
5.89263
4.1544
3.26009
3.1354
2.83801
2.2761
2.10316
1.85618
1.46667
1.32797
1.14998
0.883257
0.790036
0.85558
0.811852
0.650906
0.598893
0.528676
0.419994
0.384926
0.340693
0.275177
0.256327
0.220807
0.15853
0.124804
0.116996
0.104607
0.0845048
0.0774991
0.0684942
0.0553444
0.0508929
0.045204
0.0369298
0.035699
0.0412747
0.0421904
0.0391462
0.0432815
0.0455987
0.0475338
0.0582159
0.0533672
0.0312844
0.0149649
0.00438626
0.1887
0.598071
1.11708
1.8768
3.14761
5.54981
10.4243
18.8793
20.1805
15.0492
15.1569
13.8268
10.2284
10.0716
9.14269
6.9689
7.03223
6.17672
3.97469
3.03973
3.14557
2.88972
2.18662
2.11147
1.88151
1.40283
1.32332
1.1546
0.82391
0.738316
0.878237
0.8436
0.631233
0.603172
0.536656
0.402235
0.384363
0.343542
0.263691
0.258971
0.225491
0.148854
0.114438
0.114581
0.103992
0.0797589
0.0762399
0.0680054
0.0521485
0.0498916
0.044548
0.0340512
0.0332397
0.042089
0.0432619
0.0379837
0.0443412
0.046917
0.047991
0.0651655
0.0605597
0.0319281
0.0142022
0.00400504
0.154191
0.489716
0.919427
1.5611
2.67559
4.94122
10.1998
21.487
22.7123
14.8646
16.0321
14.7443
9.82532
10.4287
9.5762
6.65705
7.34972
6.55732
3.70045
2.74491
3.1846
2.97538
2.05032
2.13198
1.92588
1.30953
1.32612
1.17214
0.747359
0.670643
0.914038
0.888347
0.597535
0.61039
0.54979
0.37584
0.385693
0.349431
0.24664
0.263833
0.233466
0.136192
0.101736
0.113143
0.104511
0.0735486
0.0754201
0.0681565
0.0479946
0.0491857
0.044339
0.0305167
0.0301084
0.0434898
0.0448083
0.0359279
0.0456614
0.0483103
0.0471067
0.0735926
0.069381
0.0316263
0.012903
0.00349142
0.119184
0.379137
0.714758
1.22425
2.13913
4.138
9.53952
24.7247
25.8044
14.0216
17.0507
15.8903
9.03163
10.8778
10.1436
6.09189
7.76322
7.074
3.29767
2.35987
3.26994
3.11025
1.84558
2.1729
1.99867
1.17355
1.34144
1.20896
0.648435
0.582278
0.968189
0.950758
0.542873
0.62274
0.570743
0.337019
0.390386
0.35999
0.221471
0.272009
0.246045
0.119443
0.0862016
0.113253
0.106662
0.0651847
0.0753142
0.0692567
0.0424452
0.0489589
0.0448042
0.0261462
0.0260956
0.0457224
0.0470415
0.0325828
0.0474485
0.0499394
0.0441949
0.0839354
0.0803044
0.0298974
0.0110093
0.00285704
0.0842392
0.26828
0.5073
0.874733
1.55285
3.13989
8.24669
28.7746
29.6309
12.2141
18.3082
17.3715
7.68421
11.4819
10.9107
5.16458
8.31835
7.77688
2.72065
1.86679
3.42392
3.31398
1.5422
2.24599
2.11231
0.976387
1.37642
1.27312
0.520426
0.467226
1.04726
1.03686
0.457637
0.643483
0.603079
0.280493
0.400549
0.377406
0.184625
0.285007
0.264885
0.0971182
0.0672735
0.115636
0.111079
0.0536995
0.0763101
0.0717141
0.0348866
0.0494651
0.046231
0.0207097
0.020929
0.0490966
0.0502446
0.027399
0.049995
0.0520663
0.038318
0.0967658
0.0939279
0.0260854
0.00849748
0.00211963
0.0498491
0.158868
0.30099
0.521295
0.936029
1.96785
6.05705
33.8636
34.4199
9.03231
19.9454
19.329
5.56208
12.3298
11.9642
3.72766
9.07776
8.72823
1.90909
1.24624
3.67428
3.61159
1.09905
2.3677
2.28298
0.692905
1.44102
1.37465
0.354778
0.318066
1.1594
1.15438
0.328837
0.677321
0.651459
0.199079
0.419132
0.404557
0.131271
0.304896
0.292036
0.0672446
0.0443405
0.12119
0.118573
0.0377725
0.078947
0.0760588
0.0244812
0.051052
0.0489747
0.0139203
0.0142612
0.0539949
0.0547919
0.0196304
0.0536995
0.0550896
0.0282205
0.112825
0.110996
0.0193132
0.00540576
0.00130272
0.0164223
0.0523573
0.0992868
0.172326
0.3113
0.674233
2.62237
40.2708
40.4664
3.93744
22.163
21.9445
2.3719
13.5439
13.4167
1.58549
10.1263
10.0038
0.784989
0.478102
4.05454
4.03472
0.46153
2.56063
2.53132
0.289639
1.54886
1.52566
0.140798
0.125795
1.3145
1.31316
0.139302
0.730857
0.721849
0.083212
0.450175
0.445156
0.0549858
0.334465
0.329989
0.0272651
0.0167719
0.130997
0.130162
0.0156469
0.0839618
0.0829681
0.0101133
0.0541906
0.053464
0.0054271
0.00565842
0.0608817
0.0611744
0.00828606
0.0590901
0.0595881
0.0122523
0.133064
0.132421
0.00842819
0.00187373
0.000438119
)
;

boundaryField
{
    left
    {
        type            calculated;
        value           uniform 0;
    }
    right
    {
        type            calculated;
        value           uniform 0;
    }
    interface
    {
        type            calculated;
        value           nonuniform List<scalar> 
64
(
0.0164223
0.0523573
0.0992868
0.172326
0.3113
0.674233
2.62237
40.2708
40.4664
3.93744
22.163
21.9445
2.3719
13.5439
13.4167
1.58549
10.1263
10.0038
0.784989
0.478102
4.05454
4.03472
0.46153
2.56063
2.53132
0.289639
1.54886
1.52566
0.140798
0.125795
1.3145
1.31316
0.139302
0.730857
0.721849
0.083212
0.450175
0.445156
0.0549858
0.334465
0.329989
0.0272651
0.0167719
0.130997
0.130162
0.0156469
0.0839618
0.0829681
0.0101133
0.0541906
0.053464
0.0054271
0.00565842
0.0608817
0.0611744
0.00828606
0.0590901
0.0595881
0.0122523
0.133064
0.132421
0.00842819
0.00187373
0.000438119
)
;
    }
    bottom
    {
        type            calculated;
        value           nonuniform List<scalar> 
64
(
0.0155104
0.0463092
0.0764373
0.1054
0.132649
0.157606
0.179683
0.198342
0.213152
0.223839
0.230319
0.232705
0.231284
0.226486
0.218832
0.208892
0.197241
0.184426
0.170943
0.157221
0.143615
0.130405
0.117798
0.105936
0.0949092
0.0847593
0.0754952
0.0670986
0.0595322
0.0527453
0.0466793
0.0412715
0.0364588
0.0321802
0.0283786
0.0250019
0.0220035
0.0193422
0.0169816
0.01489
0.0130395
0.0114053
0.00996551
0.00870039
0.00759198
0.00662385
0.00578079
0.00504874
0.00441463
0.00386628
0.00339232
0.00298209
0.00262557
0.00231333
0.00203653
0.00178701
0.00155735
0.0013411
0.00113282
0.000928281
0.00072443
0.000519378
0.00031248
0.000104286
)
;
    }
    defaultFaces
    {
        type            empty;
    }
}


// ************************************************************************* //
