/*--------------------------------*- C++ -*----------------------------------*\
| =========                 |                                                 |
| \\      /  F ield         | OpenFOAM: The Open Source CFD Toolbox           |
|  \\    /   O peration     | Version:  5.x                                   |
|   \\  /    A nd           | Web:      www.OpenFOAM.org                      |
|    \\/     M anipulation  |                                                 |
\*---------------------------------------------------------------------------*/
FoamFile
{
    version     2.0;
    format      ascii;
    class       volScalarField;
    location    "1.6";
    object      T;
}
// * * * * * * * * * * * * * * * * * * * * * * * * * * * * * * * * * * * * * //

dimensions      [0 0 0 1 0 0 0];

internalField   nonuniform List<scalar> 
2048
(
9.83469
9.83518
9.83614
9.83756
9.83943
9.84171
9.84436
9.84732
9.85056
9.85399
9.85755
9.86118
9.86482
9.86841
9.8719
9.87525
9.87843
9.88141
9.88419
9.88675
9.8891
9.89124
9.89318
9.89492
9.89649
9.89789
9.89914
9.90025
9.90124
9.90211
9.90288
9.90357
9.90417
9.90471
9.90518
9.90559
9.90596
9.90628
9.90656
9.90681
9.90703
9.90722
9.90739
9.90753
9.90766
9.90777
9.90787
9.90795
9.90802
9.90809
9.90814
9.90819
9.90824
9.90828
9.90831
9.90834
9.90837
9.90839
9.90841
9.90842
9.90844
9.90845
9.90845
9.90846
9.51091
9.51234
9.5152
9.51944
9.52498
9.53175
9.53962
9.54844
9.55804
9.56824
9.57883
9.58962
9.60043
9.61108
9.62142
9.63135
9.64077
9.6496
9.65782
9.6654
9.67235
9.67866
9.68438
9.68953
9.69414
9.69827
9.70195
9.70522
9.70813
9.7107
9.71298
9.715
9.71678
9.71835
9.71974
9.72096
9.72204
9.72299
9.72382
9.72455
9.72519
9.72575
9.72624
9.72667
9.72704
9.72736
9.72765
9.7279
9.72811
9.7283
9.72847
9.72861
9.72874
9.72885
9.72895
9.72904
9.72912
9.72919
9.72924
9.72929
9.72933
9.72936
9.72938
9.72939
9.2002
9.20257
9.20727
9.21424
9.22337
9.23452
9.2475
9.26204
9.27788
9.2947
9.31216
9.32994
9.34773
9.36524
9.38224
9.39853
9.41396
9.42842
9.44186
9.45424
9.46556
9.47586
9.48516
9.49354
9.50104
9.50775
9.51372
9.51903
9.52375
9.52792
9.53162
9.53489
9.53777
9.54032
9.54257
9.54455
9.5463
9.54783
9.54918
9.55036
9.5514
9.5523
9.55309
9.55378
9.55439
9.55491
9.55537
9.55577
9.55612
9.55643
9.5567
9.55693
9.55714
9.55732
9.55748
9.55763
9.55775
9.55786
9.55795
9.55803
9.55809
9.55814
9.55817
9.55819
8.90146
8.90474
8.91125
8.92091
8.93358
8.94906
8.96708
8.9873
9.00933
9.0327
9.05696
9.08164
9.1063
9.13054
9.15404
9.17651
9.19777
9.21766
9.23611
9.25308
9.26858
9.28264
9.29535
9.30676
9.31698
9.32611
9.33423
9.34145
9.34784
9.35351
9.35852
9.36296
9.36687
9.37033
9.37338
9.37607
9.37843
9.38051
9.38234
9.38394
9.38534
9.38657
9.38764
9.38857
9.38939
9.3901
9.39072
9.39126
9.39173
9.39215
9.39251
9.39283
9.39311
9.39336
9.39358
9.39377
9.39394
9.39409
9.39422
9.39432
9.39441
9.39447
9.39452
9.39454
8.61374
8.61791
8.6262
8.63852
8.6547
8.67449
8.69756
8.72346
8.75168
8.78163
8.81269
8.84424
8.87572
8.90661
8.93649
8.96502
8.99194
9.01707
9.04033
9.06169
9.08115
9.09879
9.11469
9.12896
9.14172
9.1531
9.16321
9.17219
9.18015
9.1872
9.19343
9.19893
9.20379
9.20809
9.21187
9.21521
9.21815
9.22073
9.22299
9.22498
9.22672
9.22824
9.22957
9.23073
9.23173
9.23261
9.23338
9.23405
9.23463
9.23515
9.23559
9.23599
9.23634
9.23665
9.23692
9.23716
9.23737
9.23756
9.23772
9.23785
9.23796
9.23804
9.23809
9.23812
8.33621
8.34126
8.35131
8.36627
8.38595
8.41006
8.43821
8.46985
8.50434
8.54093
8.57884
8.6173
8.6556
8.69311
8.72929
8.76375
8.79618
8.82639
8.85428
8.87981
8.90304
8.92404
8.94294
8.95987
8.97498
8.98844
9.0004
9.011
9.02038
9.02869
9.03603
9.04252
9.04825
9.0533
9.05776
9.06169
9.06515
9.06818
9.07085
9.07319
9.07523
9.07702
9.07858
9.07994
9.08112
9.08215
9.08305
9.08383
9.08452
9.08512
9.08564
9.08611
9.08652
9.08688
9.0872
9.08748
9.08773
9.08796
9.08815
9.08831
9.08844
9.08853
9.0886
9.08863
8.06817
8.07409
8.08588
8.10345
8.12663
8.15509
8.18838
8.22585
8.26673
8.31008
8.35496
8.40042
8.44557
8.48968
8.53211
8.5724
8.61021
8.64533
8.67765
8.70717
8.73395
8.75811
8.77979
8.79919
8.81648
8.83185
8.84548
8.85756
8.86825
8.87769
8.88604
8.89342
8.89993
8.90567
8.91074
8.9152
8.91913
8.92258
8.92561
8.92826
8.93058
8.93261
8.93437
8.93591
8.93725
8.93842
8.93943
8.94032
8.94109
8.94177
8.94236
8.94289
8.94335
8.94376
8.94413
8.94445
8.94474
8.94499
8.94521
8.9454
8.94555
8.94566
8.94574
8.94578
7.80901
7.81578
7.82928
7.84945
7.87612
7.90896
7.94748
7.99092
8.03834
8.08864
8.14064
8.1932
8.24528
8.296
8.34464
8.39067
8.43373
8.47359
8.51016
8.54346
8.57359
8.60069
8.62496
8.64662
8.6659
8.68301
8.69817
8.71158
8.72344
8.73391
8.74316
8.75133
8.75854
8.76491
8.77052
8.77547
8.77981
8.78364
8.78699
8.78992
8.79248
8.79472
8.79667
8.79837
8.79984
8.80112
8.80224
8.80322
8.80407
8.80481
8.80546
8.80604
8.80655
8.80701
8.80741
8.80777
8.8081
8.80838
8.80863
8.80884
8.80901
8.80914
8.80923
8.80927
7.55822
7.56581
7.58099
7.60371
7.63386
7.67112
7.71496
7.76453
7.81871
7.87616
7.93548
7.9953
8.05439
8.11175
8.16657
8.21826
8.26644
8.31088
8.35151
8.38838
8.42164
8.45147
8.47812
8.50186
8.52294
8.54162
8.55815
8.57275
8.58565
8.59703
8.60709
8.61596
8.6238
8.63071
8.63681
8.64218
8.64691
8.65105
8.65469
8.65787
8.66065
8.66307
8.66518
8.66702
8.66861
8.66999
8.6712
8.67225
8.67317
8.67397
8.67467
8.6753
8.67585
8.67634
8.67678
8.67718
8.67753
8.67785
8.67812
8.67836
8.67855
8.6787
8.6788
8.67885
7.31536
7.32373
7.34052
7.36574
7.39934
7.44105
7.49033
7.54622
7.60739
7.67226
7.73913
7.80638
7.87261
7.93664
7.9976
8.05486
8.10802
8.15688
8.20138
8.24162
8.27778
8.31013
8.33896
8.36457
8.38727
8.40736
8.4251
8.44076
8.45457
8.46676
8.47752
8.48701
8.4954
8.5028
8.50933
8.51507
8.52013
8.52456
8.52845
8.53185
8.53481
8.5374
8.53964
8.54159
8.54329
8.54476
8.54604
8.54715
8.54812
8.54898
8.54972
8.55039
8.55097
8.5515
8.55197
8.5524
8.55278
8.55312
8.55342
8.55368
8.5539
8.55406
8.55417
8.55423
7.08004
7.08916
7.10748
7.13511
7.1721
7.21828
7.2731
7.33552
7.40398
7.47657
7.55126
7.62616
7.69963
7.77037
7.83744
7.90018
7.95819
8.01128
8.05945
8.10284
8.14169
8.17634
8.20713
8.23443
8.25858
8.27991
8.29872
8.3153
8.32991
8.34279
8.35416
8.36419
8.37306
8.38088
8.38779
8.39386
8.3992
8.40389
8.408
8.41158
8.41471
8.41743
8.41979
8.42184
8.42361
8.42516
8.4265
8.42766
8.42868
8.42957
8.43036
8.43105
8.43167
8.43223
8.43273
8.43318
8.43359
8.43396
8.43428
8.43457
8.4348
8.43498
8.43511
8.43517
6.85195
6.86175
6.8815
6.91142
6.95172
7.00236
7.06284
7.13203
7.20811
7.28876
7.37158
7.45434
7.53518
7.61267
7.68581
7.75392
7.81663
7.87378
7.92541
7.97172
8.01304
8.04977
8.08233
8.11112
8.13655
8.15896
8.17869
8.19606
8.21136
8.22483
8.23672
8.24722
8.2565
8.2647
8.27192
8.27828
8.28387
8.28878
8.29307
8.29681
8.30008
8.30291
8.30537
8.3075
8.30934
8.31094
8.31233
8.31354
8.31459
8.31551
8.31633
8.31705
8.31769
8.31827
8.3188
8.31927
8.31971
8.3201
8.32046
8.32076
8.32102
8.32122
8.32136
8.32142
6.63083
6.64124
6.66228
6.69433
6.7378
6.79285
6.85911
6.93535
7.01942
7.10854
7.19982
7.29067
7.379
7.46326
7.5424
7.61578
7.68303
7.74405
7.79893
7.84795
7.8915
7.9301
7.96421
7.99432
8.02085
8.0442
8.06472
8.08276
8.09863
8.1126
8.12493
8.13583
8.14546
8.15397
8.16147
8.16808
8.17388
8.17897
8.18342
8.1873
8.19067
8.1936
8.19613
8.19833
8.20022
8.20187
8.20329
8.20453
8.20561
8.20656
8.2074
8.20814
8.2088
8.2094
8.20995
8.21045
8.21091
8.21133
8.21171
8.21204
8.21232
8.21253
8.21268
8.21276
6.41646
6.42738
6.44955
6.48353
6.52999
6.58937
6.66149
6.74507
6.83758
6.93562
7.03572
7.13491
7.23084
7.32187
7.40695
7.48546
7.55709
7.6218
7.67971
7.73119
7.77675
7.81698
7.85246
7.8837
7.91118
7.93532
7.95651
7.97511
7.99144
8.00582
8.01851
8.02973
8.03966
8.04844
8.05618
8.063
8.06898
8.07422
8.0788
8.08279
8.08626
8.08926
8.09186
8.0941
8.09603
8.09771
8.09916
8.10042
8.10152
8.10249
8.10334
8.1041
8.10478
8.10539
8.10596
8.10648
8.10696
8.1074
8.10781
8.10816
8.10847
8.1087
8.10887
8.10895
6.20866
6.21999
6.24309
6.27874
6.32795
6.39152
6.46958
6.56084
6.66231
6.76976
6.87907
6.98684
7.09047
7.18825
7.27917
7.36266
7.4385
7.50669
7.56742
7.62112
7.66845
7.71011
7.74676
7.77896
7.80724
7.83204
7.85377
7.87281
7.88952
7.90421
7.91719
7.92869
7.93887
7.94787
7.95582
7.9628
7.96894
7.9743
7.97899
7.98307
7.98661
7.98967
7.99231
7.99458
7.99654
7.99824
7.99971
8.00099
8.0021
8.00308
8.00394
8.0047
8.00539
8.00602
8.0066
8.00714
8.00764
8.00811
8.00854
8.00893
8.00925
8.00951
8.00969
8.00978
6.00729
6.01891
6.04271
6.07973
6.13136
6.19892
6.28296
6.38228
6.49331
6.61074
6.72967
6.84627
6.95766
7.06213
7.15878
7.2471
7.32696
7.39845
7.46176
7.51743
7.56628
7.60916
7.64679
7.6798
7.70873
7.73406
7.75622
7.77561
7.7926
7.80753
7.82073
7.83245
7.84283
7.85203
7.86014
7.86727
7.87352
7.87899
7.88376
7.88791
7.89151
7.89461
7.89727
7.89957
7.90154
7.90325
7.90473
7.90601
7.90713
7.90811
7.90898
7.90975
7.91045
7.91109
7.91168
7.91223
7.91276
7.91325
7.9137
7.91412
7.91447
7.91476
7.91495
7.91505
5.81223
5.82401
5.84825
5.88628
5.93995
6.01121
6.10122
6.20903
6.33034
6.45838
6.58734
6.713
6.83219
6.94326
7.0455
7.13846
7.22215
7.29675
7.36243
7.41981
7.46993
7.51382
7.55225
7.5859
7.61537
7.64112
7.6636
7.68325
7.70042
7.71551
7.72887
7.74076
7.75132
7.76067
7.76892
7.77617
7.78252
7.78807
7.7929
7.79711
7.80074
7.80387
7.80655
7.80885
7.81083
7.81254
7.81402
7.8153
7.81642
7.8174
7.81827
7.81904
7.81974
7.82039
7.82099
7.82156
7.8221
7.82261
7.82309
7.82354
7.82393
7.82423
7.82444
7.82455
5.62339
5.63518
5.65958
5.69821
5.75346
5.82801
5.92393
6.0407
6.17319
6.31254
6.45193
6.58688
6.71386
6.83137
6.93905
7.03645
7.12376
7.20131
7.26913
7.32794
7.37908
7.42378
7.46285
7.49701
7.52689
7.55295
7.57566
7.59547
7.61275
7.62792
7.64139
7.65342
7.66412
7.6736
7.68196
7.6893
7.69572
7.70133
7.70621
7.71045
7.71412
7.71726
7.71994
7.72223
7.7242
7.7259
7.72738
7.72866
7.72977
7.73075
7.73161
7.73238
7.73308
7.73373
7.73434
7.73492
7.73548
7.73601
7.73653
7.737
7.73742
7.73776
7.73799
7.7381
5.4407
5.45235
5.4766
5.51539
5.57164
5.64898
5.75064
5.87691
6.0217
6.17309
6.32326
6.46774
6.60244
6.7262
6.83916
6.94077
7.03149
7.11185
7.18158
7.24152
7.29341
7.33875
7.3783
7.41282
7.44303
7.4693
7.49214
7.51205
7.52936
7.54453
7.55805
7.5702
7.58102
7.59059
7.59905
7.60645
7.61292
7.61858
7.62349
7.62775
7.63144
7.63458
7.63724
7.63952
7.64148
7.64317
7.64463
7.6459
7.64701
7.64797
7.64883
7.64959
7.65029
7.65093
7.65155
7.65214
7.65272
7.65328
7.65382
7.65433
7.65479
7.65515
7.6554
7.65552
5.26408
5.27544
5.29924
5.33769
5.3943
5.47377
5.58088
5.71725
5.87577
6.03997
6.20119
6.35546
6.49773
6.62744
6.74554
6.85111
6.94501
7.02811
7.09953
7.16027
7.21263
7.25845
7.29832
7.33309
7.36354
7.38994
7.41282
7.43276
7.45003
7.46512
7.47864
7.49089
7.50181
7.51147
7.52
7.52745
7.53394
7.53963
7.54456
7.54883
7.55253
7.55566
7.5583
7.56054
7.56248
7.56415
7.56559
7.56685
7.56794
7.5689
7.56974
7.5705
7.57118
7.57183
7.57245
7.57305
7.57364
7.57422
7.57479
7.57534
7.57584
7.57624
7.5765
7.57664
5.09348
5.10441
5.12743
5.16502
5.22128
5.30206
5.41414
5.56124
5.73537
5.91315
6.08553
6.24994
6.39954
6.53479
6.65795
6.76718
6.86399
6.94984
7.02273
7.08387
7.13641
7.18261
7.22267
7.25754
7.28818
7.31462
7.33747
7.35739
7.37454
7.38948
7.40295
7.41532
7.42631
7.43602
7.44463
7.4521
7.4586
7.4643
7.46923
7.4735
7.47721
7.48032
7.48292
7.48513
7.48704
7.48868
7.4901
7.49134
7.49242
7.49336
7.49419
7.49493
7.4956
7.49625
7.49687
7.49748
7.49809
7.49869
7.49928
7.49987
7.50042
7.50086
7.50114
7.50128
4.92884
4.93919
4.96114
4.99735
5.05245
5.13355
5.24987
5.40834
5.60064
5.79264
5.97605
6.15111
6.30765
6.4479
6.57616
6.68867
6.78806
6.87682
6.95095
7.01206
7.06445
7.11097
7.15109
7.18594
7.21676
7.24315
7.26586
7.28576
7.30272
7.3174
7.33078
7.34329
7.35435
7.36409
7.37277
7.38024
7.38672
7.39244
7.39735
7.4016
7.40532
7.40841
7.41095
7.4131
7.41498
7.4166
7.41799
7.41922
7.42027
7.42119
7.42201
7.42273
7.42339
7.42403
7.42466
7.42528
7.42589
7.42651
7.42714
7.42777
7.42837
7.42885
7.42915
7.4293
4.7701
4.77975
4.80032
4.83462
4.88773
4.96797
5.08746
5.25785
5.47185
5.67851
5.87244
6.05897
6.22187
6.36635
6.49996
6.61529
6.71683
6.80888
6.884
6.94452
6.99642
7.04333
7.08335
7.11801
7.14906
7.17531
7.19779
7.21768
7.23437
7.24868
7.26192
7.27464
7.28575
7.29548
7.30425
7.31169
7.31812
7.32387
7.32875
7.33297
7.33671
7.33976
7.34223
7.34432
7.34617
7.34775
7.34911
7.35032
7.35135
7.35225
7.35305
7.35376
7.35439
7.35502
7.35566
7.35628
7.3569
7.35755
7.3582
7.35887
7.35955
7.36007
7.36038
7.36053
4.61719
4.62603
4.64497
4.67685
4.72708
4.80511
4.92628
5.10893
5.34955
5.57087
5.77424
5.97361
6.142
6.28966
6.42924
6.54674
6.64986
6.7459
6.8217
6.88098
6.93198
6.97947
7.01923
7.05352
7.08492
7.11092
7.13304
7.15299
7.16933
7.18314
7.19618
7.20922
7.22036
7.23004
7.23892
7.24631
7.25266
7.25844
7.26327
7.26744
7.27123
7.27424
7.2766
7.27862
7.28045
7.28198
7.2833
7.2845
7.28551
7.28638
7.28717
7.28785
7.28846
7.28908
7.28973
7.29035
7.29098
7.29165
7.29232
7.29304
7.2938
7.29436
7.29469
7.29484
4.47005
4.47798
4.49504
4.52405
4.57053
4.64483
4.76566
4.9604
5.23467
5.46984
5.68078
5.89528
6.06784
6.21719
6.36397
6.48274
6.58658
6.68786
6.76391
6.82112
6.87077
6.91927
6.95853
6.9922
7.0242
7.04979
7.0714
7.09156
7.10744
7.1206
7.13336
7.14691
7.15803
7.16758
7.17666
7.18395
7.19016
7.19602
7.20077
7.20486
7.20874
7.21169
7.21393
7.21585
7.21768
7.21916
7.22044
7.22163
7.22261
7.22344
7.22423
7.22488
7.22546
7.22606
7.22674
7.22736
7.22798
7.22868
7.22936
7.23012
7.231
7.23161
7.23194
7.23208
4.32859
4.33553
4.35053
4.37626
4.41814
4.48706
4.60493
4.81069
5.1286
5.37559
5.59108
5.82445
5.99918
6.14817
6.3043
6.42301
6.52636
6.63482
6.7105
6.76464
6.81238
6.86263
6.90107
6.93375
6.96679
6.99176
7.01263
7.03326
7.04856
7.06086
7.07325
7.0876
7.09862
7.10794
7.11734
7.12446
7.13046
7.13649
7.14111
7.14509
7.14912
7.15199
7.15407
7.15589
7.15773
7.15916
7.16037
7.16158
7.16251
7.16331
7.1641
7.16472
7.16526
7.16584
7.16655
7.16715
7.16777
7.16851
7.16919
7.16999
7.17101
7.17166
7.17199
7.17213
4.1927
4.1986
4.21139
4.23351
4.27004
4.33187
4.44347
4.65763
5.03345
5.28827
5.50374
5.76192
5.93583
6.08156
6.25057
6.36727
6.46834
6.58703
6.66137
6.71124
6.75636
6.80954
6.84666
6.87787
6.91265
6.93666
6.95648
6.97802
6.99257
7.00377
7.01564
7.03121
7.042
7.05094
7.06085
7.06771
7.07342
7.07972
7.08415
7.08796
7.09225
7.09501
7.0969
7.09858
7.10048
7.10183
7.10297
7.10421
7.1051
7.10584
7.10666
7.10724
7.10772
7.10827
7.10904
7.10963
7.11022
7.11101
7.11169
7.11251
7.11373
7.1144
7.11472
7.11485
4.06229
4.06711
4.07759
4.09584
4.12638
4.17945
4.28079
4.4982
4.95226
5.20796
5.41678
5.70896
5.87754
6.016
6.20344
6.31526
6.41147
6.54494
6.61638
6.66058
6.70216
6.7601
6.79514
6.82417
6.86177
6.88435
6.90269
6.92579
6.93932
6.94915
6.96028
6.97771
6.98804
6.99639
7.00711
7.01357
7.01886
7.02562
7.02978
7.03333
7.03802
7.04062
7.04228
7.0438
7.04581
7.04707
7.04811
7.04943
7.05024
7.05092
7.05178
7.05231
7.05273
7.05325
7.05409
7.05465
7.05522
7.05608
7.05672
7.05755
7.05902
7.05972
7.06001
7.06012
3.93723
3.94096
3.94908
3.96329
3.98734
4.03014
4.11665
4.32825
4.8893
5.13464
5.32747
5.66747
5.82405
5.94971
6.16398
6.2667
6.35435
6.5093
6.57541
6.61236
6.64916
6.71454
6.74635
6.77222
6.81426
6.83467
6.85093
6.87659
6.88871
6.89686
6.90691
6.92711
6.93662
6.94408
6.95608
6.96191
6.96661
6.97411
6.97786
6.98103
6.98636
6.98872
6.99009
6.99142
6.99363
6.99475
6.99567
6.9971
6.99783
6.99843
6.99936
6.99983
7.00018
7.00065
7.00161
7.00212
7.00263
7.0036
7.00419
7.00498
7.00681
7.00749
7.00774
7.00783
3.8174
3.82003
3.82578
3.83589
3.85312
3.88441
3.95124
4.14212
4.85045
5.06809
5.23214
5.64022
5.775
5.88035
6.13381
6.22131
6.2952
6.48126
6.53823
6.56628
6.59656
6.67327
6.70013
6.72147
6.77031
6.78748
6.80083
6.83049
6.84061
6.84675
6.85521
6.87948
6.88761
6.89378
6.90772
6.91263
6.91649
6.92515
6.92828
6.93092
6.93719
6.93919
6.94022
6.9413
6.94384
6.94477
6.94551
6.94715
6.94776
6.94824
6.9493
6.94969
6.94995
6.95034
6.95148
6.95191
6.95234
6.95347
6.95397
6.95467
6.95699
6.95761
6.95781
6.95787
3.70265
3.70421
3.70762
3.71361
3.72391
3.74287
3.7854
3.93215
4.84364
5.00777
5.1259
5.63107
5.72993
5.80488
6.11523
6.17876
6.23172
6.46244
6.50448
6.5221
6.54343
6.63692
6.65629
6.67127
6.73028
6.74261
6.75193
6.78764
6.79489
6.79873
6.80483
6.83496
6.8409
6.84524
6.86207
6.86559
6.86829
6.87869
6.88093
6.8828
6.89046
6.89192
6.89256
6.89331
6.89635
6.89701
6.89753
6.89948
6.89991
6.90024
6.9015
6.90177
6.90194
6.90222
6.90363
6.90393
6.90424
6.90561
6.90596
6.90649
6.90949
6.90996
6.91009
6.91013
3.59284
3.59335
3.59447
3.59645
3.59986
3.60618
3.62093
3.68813
4.87939
4.9527
5.00243
5.6453
5.6882
5.71942
6.11145
6.13869
6.16099
6.45514
6.47361
6.47967
6.48855
6.60637
6.61464
6.6208
6.69466
6.6999
6.70371
6.7483
6.75139
6.7527
6.75532
6.79378
6.79635
6.79813
6.81919
6.82069
6.82179
6.83476
6.83571
6.83648
6.84616
6.84679
6.84701
6.84731
6.8511
6.85138
6.85159
6.85401
6.85418
6.85432
6.85588
6.85599
6.85605
6.85617
6.85795
6.85808
6.85821
6.85993
6.86007
6.86031
6.86423
6.86445
6.86449
6.86451
)
;

boundaryField
{
    left
    {
        type            zeroGradient;
    }
    right
    {
        type            zeroGradient;
    }
    interface
    {
        type            fixedValue;
        value           nonuniform List<scalar> 
64
(
3.53915
3.53915
3.53915
3.53915
3.53915
3.53915
3.53915
3.53915
4.92641
4.92641
4.92641
5.66812
5.66812
5.66812
6.11924
6.11924
6.11924
6.45886
6.45886
6.45886
6.45886
6.59435
6.59435
6.59435
6.67907
6.67907
6.67907
6.73018
6.73018
6.73018
6.73018
6.77461
6.77461
6.77461
6.79877
6.79877
6.79877
6.81361
6.81361
6.81361
6.82475
6.82475
6.82475
6.82475
6.82909
6.82909
6.82909
6.83185
6.83185
6.83185
6.83363
6.83363
6.83363
6.83363
6.83568
6.83568
6.83568
6.83765
6.83765
6.83765
6.84222
6.84222
6.84222
6.84222
)
;
    }
    bottom
    {
        type            fixedValue;
        value           uniform 10;
    }
    defaultFaces
    {
        type            empty;
    }
}


// ************************************************************************* //
