/*--------------------------------*- C++ -*----------------------------------*\
| =========                 |                                                 |
| \\      /  F ield         | OpenFOAM: The Open Source CFD Toolbox           |
|  \\    /   O peration     | Version:  5.x                                   |
|   \\  /    A nd           | Web:      www.OpenFOAM.org                      |
|    \\/     M anipulation  |                                                 |
\*---------------------------------------------------------------------------*/
FoamFile
{
    version     2.0;
    format      ascii;
    class       volScalarField;
    location    "0.2";
    object      gradTx;
}
// * * * * * * * * * * * * * * * * * * * * * * * * * * * * * * * * * * * * * //

dimensions      [0 -1 0 1 0 0 0];

internalField   nonuniform List<scalar> 
2048
(
0.000839337
0.00247766
0.00407193
0.00557194
0.00690566
0.00806629
0.00900663
0.00969172
0.01011
0.0102633
0.0101676
0.00985231
0.00935696
0.00872675
0.00800742
0.00724122
0.00646427
0.00570525
0.00498518
0.00431805
0.00371183
0.00316972
0.00269137
0.00227396
0.00191311
0.00160358
0.00133982
0.00111627
0.000927686
0.000769203
0.000636447
0.000525542
0.000433102
0.000356203
0.000292344
0.000239395
0.000195562
0.000159333
0.000129444
0.00010484
8.46437e-05
6.81297e-05
5.46988e-05
4.38594e-05
3.52102e-05
2.84254e-05
2.3242e-05
1.94465e-05
1.68631e-05
1.53391e-05
1.47272e-05
1.48669e-05
1.55641e-05
1.65789e-05
1.76295e-05
1.84228e-05
1.87108e-05
1.83527e-05
1.73385e-05
1.57161e-05
1.3416e-05
1.01702e-05
6.04578e-06
1.9124e-06
0.00250735
0.00738967
0.0121233
0.0165956
0.020587
0.0240485
0.0268503
0.0288898
0.030128
0.030569
0.0302613
0.0292953
0.0277925
0.0258904
0.0237275
0.0214311
0.019109
0.0168462
0.0147045
0.0127243
0.0109283
0.00932479
0.00791199
0.00668075
0.00561753
0.00470642
0.00393066
0.00327366
0.00271975
0.0022545
0.00186495
0.00153963
0.00126856
0.00104312
0.000855945
0.000700779
0.000572342
0.0004662
0.000378641
0.00030657
0.000247416
0.000199051
0.000159718
0.000127977
0.000102654
8.27959e-05
6.76335e-05
5.65467e-05
4.9026e-05
4.46309e-05
4.29382e-05
4.34807e-05
4.56857e-05
4.88326e-05
5.20672e-05
5.45005e-05
5.53951e-05
5.43692e-05
5.14724e-05
4.69436e-05
4.05197e-05
3.06733e-05
1.62505e-05
3.94759e-06
0.00415949
0.0122472
0.0200715
0.0274871
0.0341286
0.0398809
0.0445312
0.0479057
0.0499312
0.0506119
0.0500318
0.0483494
0.0457762
0.0425497
0.0389065
0.0350611
0.0311929
0.0274414
0.0239056
0.020649
0.0177053
0.0150853
0.0127831
0.0107814
0.00905651
0.00758101
0.00632661
0.00526567
0.00437219
0.00362245
0.00299519
0.00247172
0.00203578
0.00167339
0.00137263
0.00112338
0.000917118
0.000746697
0.000606138
0.000490463
0.000395533
0.000317927
0.000254823
0.000203909
0.0001633
0.00013147
0.000107195
8.94883e-05
7.75503e-05
7.06959e-05
6.82691e-05
6.95355e-05
7.35664e-05
7.91589e-05
8.48577e-05
8.9145e-05
9.07912e-05
8.92242e-05
8.46702e-05
7.78275e-05
6.87513e-05
5.39787e-05
2.37663e-05
1.57303e-06
0.00580899
0.0171116
0.0280471
0.0384341
0.0477686
0.0558557
0.0623871
0.0671029
0.0698864
0.070739
0.0697869
0.0672694
0.063504
0.0588425
0.0536296
0.0481724
0.0427232
0.0374731
0.0325543
0.0280482
0.0239946
0.020402
0.017257
0.0145316
0.0121897
0.0101914
0.00849615
0.00706494
0.00586151
0.00485299
0.00401017
0.00330746
0.00272271
0.00223692
0.00183395
0.00150013
0.00122399
0.000995895
0.000807819
0.000653072
0.000526104
0.000422325
0.000337955
0.000269899
0.000215638
0.000173137
0.00014077
0.000117239
0.000101503
9.26859e-05
8.99547e-05
9.23587e-05
9.86479e-05
0.000107137
0.000115735
0.00012226
0.000124989
0.000123169
0.00011709
0.000107813
9.68633e-05
8.18407e-05
3.23911e-05
-3.85907e-06
0.00747283
0.0220315
0.036137
0.0495722
0.0616925
0.072209
0.0806971
0.0867866
0.0903028
0.0912405
0.0897783
0.086257
0.0811235
0.0748649
0.067949
0.0607831
0.0536929
0.0469179
0.0406177
0.0348844
0.0297575
0.0252377
0.0212993
0.0179003
0.0149898
0.0125138
0.0104188
0.00865401
0.00717291
0.00593369
0.00489947
0.00403815
0.00332207
0.00272764
0.00223484
0.00182683
0.00148945
0.00121087
0.000981241
0.000792354
0.000637414
0.0005108
0.000407889
0.000324899
0.000258759
0.000206997
0.000167644
0.000139146
0.000120275
0.000110023
0.000107445
0.000111438
0.000120477
0.000132395
0.000144423
0.000153667
0.000157951
0.000156415
0.000149186
0.000136932
0.000123009
0.000111844
4.25676e-05
-1.11011e-05
0.00916152
0.0270363
0.0443953
0.0609939
0.0760404
0.0891315
0.0996973
0.107222
0.111451
0.112367
0.110216
0.10547
0.0987399
0.0906755
0.0818864
0.0728884
0.0640807
0.0557457
0.0480621
0.0411243
0.0349632
0.0295649
0.0248862
0.0208672
0.0174398
0.0145343
0.0120831
0.0100236
0.00829885
0.00685839
0.00565807
0.00465968
0.00383053
0.00314281
0.00257308
0.00210163
0.00171197
0.00139036
0.00112535
0.000907425
0.000728719
0.000582721
0.000464084
0.000368439
0.000292249
0.000232674
0.000187467
0.000154871
0.000133528
0.000122356
0.000120369
0.00012639
0.000138678
0.000154593
0.000170616
0.000183063
0.000189354
0.000188724
0.000181035
0.00016558
0.000147123
0.000142306
5.31287e-05
-1.99477e-05
0.0108768
0.0321342
0.052845
0.0727529
0.0909121
0.106777
0.119593
0.128649
0.133576
0.13434
0.131276
0.125031
0.116421
0.106298
0.0954348
0.0844623
0.0738517
0.0639198
0.0548532
0.0467381
0.0395871
0.0333642
0.0280031
0.0234217
0.0195322
0.0162474
0.0134855
0.0111712
0.00923767
0.00762607
0.00628536
0.00517175
0.00424794
0.00348241
0.00284868
0.00232457
0.0018916
0.0015344
0.00124017
0.000998317
0.000800044
0.000638105
0.000506546
0.000400514
0.000316086
0.000250131
0.000200181
0.000164334
0.000141148
0.000129525
0.00012851
0.00013694
0.000152938
0.000173411
0.000194003
0.00021009
0.000218695
0.000219431
0.000211941
0.000193143
0.000168699
0.000171671
6.2328e-05
-3.08139e-05
0.0126123
0.037312
0.0614776
0.0848647
0.106369
0.125267
0.140568
0.151293
0.156913
0.157366
0.153112
0.145029
0.134202
0.121726
0.108561
0.0954601
0.0829599
0.0713988
0.0609573
0.0517001
0.0436113
0.0366242
0.0306434
0.0255609
0.0212666
0.0176547
0.0146282
0.0120997
0.0099925
0.00823977
0.00678423
0.00557698
0.00457665
0.00374849
0.0030634
0.00249715
0.00202962
0.00164407
0.00132662
0.00106577
0.000852008
0.000677467
0.000535703
0.000421471
0.000330553
0.000259591
0.00020596
0.000167656
0.000143201
0.000131531
0.000131786
0.00014291
0.000162993
0.000188538
0.00021426
0.00023438
0.000245428
0.000247702
0.000240814
0.000218308
0.000186474
0.000197931
6.79055e-05
-4.4497e-05
0.0143537
0.0425349
0.0702522
0.0973063
0.122435
0.144696
0.162791
0.175375
0.181691
0.18164
0.175854
0.165524
0.152081
0.136918
0.121206
0.10582
0.0913501
0.0781383
0.066342
0.0559894
0.0470241
0.0393404
0.032808
0.0272891
0.0226493
0.0187635
0.015519
0.0128166
0.0105702
0.00870575
0.00716023
0.00588024
0.00482089
0.00394465
0.00322031
0.00262197
0.00212818
0.00172116
0.00138618
0.00111105
0.000885665
0.000701688
0.000552288
0.000431924
0.000336155
0.000261472
0.000205145
0.000165114
0.000139902
0.000128512
0.000130238
0.00014422
0.000168636
0.000199666
0.000231032
0.000255531
0.000269
0.00027268
0.000266444
0.000239446
0.000198715
0.000218579
6.71342e-05
-6.20111e-05
0.016079
0.0477469
0.0790948
0.110014
0.139096
0.165127
0.186418
0.201119
0.20815
0.207354
0.199613
0.186546
0.170028
0.151808
0.133291
0.115468
0.0989609
0.0840939
0.0709788
0.0595907
0.0498207
0.0415154
0.0345043
0.0286167
0.0236922
0.0195856
0.0161693
0.0133325
0.0109804
0.00903258
0.00742089
0.00608806
0.00498623
0.00407565
0.00332342
0.00270238
0.00219009
0.00176802
0.00142081
0.00113577
0.000902366
0.000711901
0.000557253
0.000432665
0.000333555
0.000256326
0.000198199
0.000157097
0.000131569
0.000120714
0.000124016
0.000140891
0.000169726
0.000206504
0.000243923
0.000273079
0.000288804
0.000293482
0.000287592
0.000254808
0.000203523
0.000230832
5.71091e-05
-8.43399e-05
0.0177583
0.0528706
0.0878977
0.122881
0.156293
0.186597
0.211603
0.228767
0.236543
0.234702
0.224483
0.208092
0.187974
0.166298
0.144717
0.124318
0.105729
0.0892234
0.0748444
0.0624955
0.0520033
0.0431587
0.0357461
0.0295595
0.0244114
0.0201369
0.0165938
0.0136606
0.011235
0.00923055
0.0075751
0.00620806
0.00507918
0.00414697
0.00337731
0.00274219
0.00221853
0.00178728
0.00143271
0.00114177
0.000903653
0.000709402
0.000551683
0.000424602
0.000323511
0.00024479
0.00018566
0.000144067
0.000118603
0.000108471
0.00011337
0.000133044
0.000166213
0.000208807
0.000252531
0.000286502
0.000304167
0.000309195
0.000303035
0.00026266
0.000199144
0.000232028
3.53066e-05
-0.000112058
0.0193552
0.0578091
0.09652
0.135757
0.173923
0.209109
0.238493
0.258581
0.267151
0.26388
0.250536
0.230128
0.205818
0.180264
0.155367
0.132279
0.11159
0.0934897
0.0779223
0.0647027
0.0535812
0.044286
0.0365525
0.0301377
0.0248269
0.0204361
0.0168095
0.0138161
0.0113469
0.00931101
0.00763261
0.00624856
0.00510676
0.0041645
0.00338692
0.00274552
0.0022169
0.00178178
0.00142422
0.001131
0.000891163
0.000695568
0.000536738
0.000408707
0.000306835
0.000227546
0.000168111
0.000126528
0.00010145
9.21801e-05
9.86283e-05
0.000120901
0.000158145
0.000206409
0.000256484
0.000295262
0.000314371
0.000318891
0.000311638
0.000261426
0.000184318
0.000220159
3.31916e-07
-0.000144858
0.0208269
0.0624478
0.104789
0.148445
0.19183
0.232629
0.267238
0.290862
0.300295
0.295096
0.277821
0.252579
0.223422
0.193557
0.165114
0.139257
0.116486
0.0968633
0.0802047
0.0662189
0.0545705
0.0449189
0.0369473
0.0303751
0.0249614
0.0205039
0.0168347
0.013815
0.0113302
0.00928587
0.00760359
0.0062182
0.00507623
0.00413432
0.0033573
0.00271656
0.00218868
0.00175439
0.00139772
0.00110546
0.000866561
0.000671809
0.000513604
0.000385969
0.000284353
0.00020529
0.000146144
0.000105003
8.05856e-05
7.22772e-05
8.01846e-05
0.000104772
0.000145677
0.000199242
0.000255485
0.000298858
0.000318713
0.000321702
0.000312456
0.000249854
0.000158629
0.000194448
-4.7322e-05
-0.000181115
0.0221272
0.0666589
0.112507
0.160702
0.209801
0.257078
0.297984
0.325957
0.336345
0.32856
0.306355
0.275324
0.24061
0.206003
0.17382
0.145159
0.120365
0.0993245
0.0816931
0.0670591
0.0549944
0.0450843
0.0369583
0.0302988
0.0248397
0.0203624
0.016689
0.0136741
0.0111991
0.00916721
0.00749832
0.00612566
0.00499489
0.00406247
0.00329344
0.00265943
0.00213727
0.00170792
0.00135557
0.00106707
0.000831487
0.000639514
0.000483456
0.000357365
0.000256879
0.000178709
0.000120347
8.00094e-05
5.64881e-05
4.92173e-05
5.84747e-05
8.50452e-05
0.000129066
0.000187344
0.000249335
0.000296881
0.000316564
0.000316897
0.000304862
0.000227166
0.000122794
0.000155863
-0.000104754
-0.000217667
0.0232088
0.0703072
0.11945
0.172241
0.227558
0.282318
0.330876
0.364283
0.37574
0.364493
0.336113
0.298197
0.257168
0.217412
0.181348
0.149902
0.123189
0.100865
0.0823989
0.0672461
0.0548817
0.0448137
0.0366165
0.0299375
0.0244876
0.0200343
0.0163918
0.01341
0.0109676
0.00896695
0.00732688
0.00597945
0.0048698
0.00395482
0.00320019
0.00257813
0.00206597
0.00164511
0.0013
0.00101772
0.000787508
0.00060003
0.000447431
0.000323836
0.000225193
0.000148463
9.12799e-05
5.20463e-05
2.96273e-05
2.34561e-05
3.39594e-05
6.21708e-05
0.000108662
0.000170861
0.000237948
0.000289042
0.000307421
0.000303949
0.000288675
0.000193172
7.87918e-05
0.000107436
-0.00016664
-0.000250023
0.0240273
0.0732572
0.125386
0.182735
0.24475
0.308143
0.36605
0.406344
0.419009
0.403108
0.367013
0.320972
0.272847
0.227579
0.18756
0.15341
0.124929
0.101491
0.0823437
0.0668098
0.0542668
0.0441422
0.0359551
0.0293215
0.0239319
0.0195426
0.0159627
0.0130392
0.0106495
0.00869652
0.00709898
0.00578776
0.00470774
0.00381693
0.00308211
0.00247641
0.00197787
0.0015685
0.00123312
0.000959134
0.000736097
0.000554636
0.000406617
0.000286267
0.000190026
0.000115171
5.94663e-05
2.158e-05
4.53167e-07
-4.56648e-06
7.10527e-06
3.66497e-05
8.49005e-05
0.000150033
0.000221354
0.000275208
0.000290948
0.000282577
0.000264252
0.000148336
2.97631e-05
5.42526e-05
-0.000225929
-0.000273134
0.0245451
0.0753814
0.130077
0.191827
0.260955
0.334253
0.403624
0.45276
0.466795
0.444606
0.398902
0.343366
0.287361
0.236291
0.192331
0.155626
0.125577
0.10122
0.0815588
0.0657863
0.0531885
0.0431081
0.0350089
0.0284815
0.0231992
0.0189096
0.0154205
0.0125774
0.0102578
0.00836675
0.0068238
0.00555832
0.00451507
0.00365397
0.00294347
0.00235776
0.00187582
0.00148044
0.00115688
0.000892911
0.000678609
0.000504535
0.000362039
0.000245473
0.000152045
7.94145e-05
2.53837e-05
-1.09628e-05
-3.06099e-05
-3.44408e-05
-2.16334e-05
9.02043e-06
5.82881e-05
0.000125181
0.000199681
0.000255403
0.000266997
0.000252761
0.000232539
9.37788e-05
-2.03801e-05
3.02121e-06
-0.000275271
-0.000282737
0.0247356
0.0765689
0.133298
0.199139
0.275667
0.360235
0.443677
0.504308
0.519891
0.489144
0.431528
0.365034
0.300397
0.243337
0.195551
0.156507
0.12514
0.100086
0.0800838
0.0642166
0.0516889
0.0417516
0.0338132
0.0274482
0.0223155
0.0181569
0.0147833
0.0120397
0.00980454
0.0079876
0.00650993
0.0052984
0.00429766
0.00347069
0.00278814
0.00222537
0.00176243
0.0013831
0.00107307
0.000820484
0.000616264
0.000450854
0.000314666
0.000202188
0.000111847
4.17296e-05
-1.05441e-05
-4.52029e-05
-6.31615e-05
-6.58008e-05
-5.18333e-05
-2.01489e-05
2.9394e-05
9.66851e-05
0.000173144
0.000229817
0.000235627
0.00021471
0.000195054
3.12465e-05
-6.76118e-05
-3.88137e-05
-0.000308943
-0.000277014
0.0245861
0.0767339
0.134843
0.204288
0.288304
0.385528
0.486215
0.561966
0.579283
0.536799
0.464518
0.385579
0.311621
0.248514
0.197135
0.156035
0.123644
0.0981374
0.0779657
0.0621451
0.0498128
0.0401144
0.0324031
0.0262514
0.0213061
0.0173048
0.014068
0.0114401
0.00930079
0.00756813
0.00616529
0.00501476
0.00406083
0.00327136
0.00261964
0.0020821
0.00164003
0.00127843
0.000983304
0.00074311
0.000550136
0.000394647
0.000265407
0.000157051
6.99504e-05
2.62235e-06
-4.79529e-05
-8.08147e-05
-9.68176e-05
-9.83368e-05
-8.31223e-05
-5.02633e-05
-1.1561e-06
6.4956e-05
0.00014201
0.000198795
0.000197107
0.00016882
0.000153768
-3.69483e-05
-0.000108633
-6.43305e-05
-0.000324788
-0.000258098
0.0240994
0.0758219
0.134544
0.206902
0.298213
0.409391
0.531125
0.626982
0.64621
0.587505
0.497351
0.404557
0.320681
0.251635
0.197029
0.154209
0.121133
0.0954363
0.0752566
0.0596173
0.0476063
0.0382393
0.0308125
0.0249201
0.0201952
0.0163721
0.0132904
0.0107916
0.00875648
0.00711637
0.00579717
0.00471365
0.00380937
0.00305977
0.00244112
0.00193052
0.00151069
0.00116815
0.000889043
0.000661859
0.000481143
0.000336913
0.000215136
0.000110595
2.67852e-05
-3.74152e-05
-8.65467e-05
-0.000117534
-0.000131192
-0.00013181
-0.000115203
-8.06982e-05
-3.26816e-05
3.04071e-05
0.000106579
0.000162828
0.000151918
0.000115624
0.000110908
-0.00010801
-0.000141721
-6.85783e-05
-0.000325461
-0.000232801
0.0232931
0.0738143
0.13228
0.206644
0.304681
0.430867
0.578091
0.700958
0.722242
0.640958
0.529329
0.421509
0.327217
0.252542
0.195217
0.15105
0.117668
0.0920588
0.0720111
0.056678
0.0451171
0.0361694
0.0290734
0.0234815
0.0190055
0.0153755
0.0124647
0.0101064
0.00818027
0.00663924
0.00541227
0.00440089
0.00354743
0.00283919
0.00225536
0.0017729
0.00137618
0.0010538
0.000791626
0.000577609
0.000410028
0.000278612
0.000164701
6.32225e-05
-1.73163e-05
-7.78744e-05
-0.00012611
-0.000155168
-0.000165864
-0.000166067
-0.00014788
-0.000110787
-6.44412e-05
-6.58384e-06
6.71435e-05
0.000122544
0.000100735
5.57559e-05
6.86674e-05
-0.00017878
-0.000167381
-4.99162e-05
-0.000318306
-0.000211926
0.0221962
0.0707301
0.12799
0.203233
0.306969
0.448746
0.626481
0.785962
0.809379
0.696478
0.559561
0.435996
0.330862
0.251111
0.191731
0.146591
0.11333
0.0880953
0.0682837
0.0533693
0.0423932
0.0339484
0.0272145
0.0219609
0.0177588
0.0143294
0.0116041
0.00939556
0.00757949
0.00614249
0.00501678
0.00408197
0.00327853
0.0026124
0.00206481
0.00161123
0.00123804
0.000936721
0.000692299
0.000491028
0.000337346
0.000220699
0.00011496
1.51833e-05
-6.21356e-05
-0.000118182
-0.000166527
-0.000193617
-0.000200331
-0.000201066
-0.000181098
-0.000139801
-9.56184e-05
-4.57205e-05
2.39644e-05
7.87066e-05
4.43779e-05
-1.00565e-05
2.88885e-05
-0.000245924
-0.000188557
-1.08876e-05
-0.000313457
-0.000207863
0.0208444
0.0666239
0.121678
0.196468
0.30434
0.461544
0.675178
0.884671
0.91019
0.752817
0.586955
0.447659
0.33124
0.247262
0.186657
0.140872
0.108209
0.0836505
0.0641245
0.0497279
0.0394839
0.0316207
0.0252603
0.0203821
0.0164757
0.0132455
0.0107203
0.00866988
0.00696002
0.00563063
0.00461648
0.00376208
0.00300546
0.00238169
0.00187167
0.00144723
0.00109749
0.000818084
0.000592275
0.000402562
0.000263432
0.000164157
6.68153e-05
-3.34643e-05
-0.00010759
-0.000157633
-0.000207813
-0.0002329
-0.000233934
-0.000236898
-0.000214988
-0.000166916
-0.000125296
-8.68451e-05
-2.27691e-05
3.22456e-05
-1.62651e-05
-8.09693e-05
-7.21973e-06
-0.00030623
-0.000210256
4.17067e-05
-0.000320282
-0.000230672
0.0192736
0.0615832
0.113421
0.186251
0.296119
0.467492
0.722344
1.00056
1.02799
0.80788
0.610249
0.456296
0.327944
0.240968
0.180144
0.133929
0.102414
0.0788456
0.0595751
0.0457835
0.0364398
0.0292318
0.0232293
0.0187671
0.0151762
0.0121322
0.0098243
0.00793968
0.00632616
0.00510685
0.00421697
0.00344633
0.00273021
0.0021489
0.00167789
0.00128241
0.000955513
0.000698869
0.000492802
0.000312409
0.000188372
0.000110046
2.1261e-05
-8.29015e-05
-0.000153764
-0.00019529
-0.000250155
-0.0002732
-0.000265756
-0.000273834
-0.000249924
-0.000191165
-0.000152419
-0.000130007
-7.29807e-05
-1.56788e-05
-8.03661e-05
-0.000155992
-3.92345e-05
-0.000357041
-0.000238543
9.77381e-05
-0.000343043
-0.00028355
0.0175143
0.0557221
0.103371
0.172609
0.281758
0.464571
0.765101
1.13813
1.16705
0.858358
0.62807
0.461966
0.320502
0.232266
0.17242
0.125772
0.096067
0.07382
0.0546634
0.0415566
0.0333144
0.026829
0.0211321
0.0171367
0.0138806
0.0109938
0.00892606
0.00721537
0.00568044
0.00457296
0.00382381
0.00313987
0.00245379
0.00191548
0.00148527
0.00111811
0.000812784
0.00057988
0.000395255
0.000220485
0.000111951
5.95559e-05
-2.05556e-05
-0.000133611
-0.000200959
-0.000229849
-0.000293983
-0.000314925
-0.000294475
-0.000312373
-0.000286599
-0.00021138
-0.000175743
-0.000175549
-0.000126765
-6.35545e-05
-0.000147326
-0.000233979
-6.7455e-05
-0.000396813
-0.000279044
0.00014566
-0.000377248
-0.000359205
0.0155886
0.0491757
0.0917485
0.15571
0.260908
0.450589
0.799105
1.30319
1.33293
0.899238
0.639065
0.465111
0.308316
0.221275
0.163799
0.116365
0.0893068
0.0687357
0.0493967
0.0370572
0.0301653
0.0244627
0.0189686
0.0155112
0.01261
0.0098292
0.00803545
0.00650793
0.00502337
0.00402929
0.00344278
0.00284806
0.00217605
0.00168253
0.00129554
0.000955461
0.000669688
0.000461725
0.00030126
0.00012638
3.35998e-05
1.40753e-05
-5.72612e-05
-0.000186454
-0.000249762
-0.000259458
-0.000340051
-0.000358801
-0.000318175
-0.000353326
-0.000326107
-0.000226113
-0.000193766
-0.000224197
-0.000184463
-0.00010933
-0.00021698
-0.000313695
-9.25571e-05
-0.000425745
-0.000335249
0.000175075
-0.000408594
-0.000438931
0.0135101
0.0420942
0.0788411
0.135872
0.233507
0.423341
0.817989
1.50324
1.53277
0.923166
0.642111
0.466695
0.290562
0.208217
0.154703
0.105595
0.0822955
0.0637821
0.043754
0.0322837
0.0270566
0.0221878
0.016725
0.013912
0.0113878
0.008631
0.00716266
0.00582945
0.00435308
0.00347459
0.0030802
0.00257673
0.0018954
0.00145095
0.00111042
0.000795497
0.000526299
0.000344781
0.000212843
2.93004e-05
-4.7676e-05
-2.47386e-05
-8.71688e-05
-0.000242758
-0.000301135
-0.000281483
-0.00038956
-0.000405989
-0.000334097
-0.00039791
-0.000370052
-0.000233545
-0.000204652
-0.000277178
-0.000246774
-0.00015015
-0.000289826
-0.000393987
-0.000114952
-0.000446369
-0.000407083
0.000179378
-0.000416066
-0.000495889
0.0112877
0.0346357
0.0649856
0.113563
0.199856
0.380863
0.812668
1.74782
1.77581
0.919644
0.636637
0.46835
0.266058
0.19346
0.145681
0.0932318
0.0752272
0.0591824
0.0376764
0.027223
0.0240615
0.0200659
0.0143695
0.0123632
0.0102405
0.0073832
0.00631914
0.0051937
0.00366489
0.002906
0.00274318
0.0023324
0.00160845
0.00122162
0.000931704
0.000639124
0.000382364
0.000229141
0.000132617
-7.2012e-05
-0.000133374
-5.48775e-05
-0.000108176
-0.000304418
-0.000356543
-0.000292203
-0.000444309
-0.000458241
-0.000338318
-0.000447892
-0.000420656
-0.000231375
-0.000206139
-0.000336329
-0.000314894
-0.000182018
-0.000367255
-0.000474095
-0.000133894
-0.000463974
-0.000490213
0.000157741
-0.000379741
-0.000503015
0.00893181
0.0269577
0.0505477
0.0893775
0.160674
0.321807
0.770468
2.04908
2.07387
0.874041
0.623072
0.472528
0.233083
0.177567
0.137427
0.0788807
0.0683435
0.0552006
0.0310554
0.0218514
0.0212645
0.018167
0.0118477
0.010894
0.00920014
0.00605906
0.00551876
0.00461683
0.00295075
0.00231899
0.00244
0.00212256
0.00130958
0.000995588
0.000761319
0.000487168
0.000237294
0.000114528
6.40091e-05
-0.000179374
-0.000225584
-7.38975e-05
-0.000117651
-0.000374007
-0.000418119
-0.000286442
-0.000506877
-0.000518097
-0.000325363
-0.00050576
-0.000480885
-0.000216698
-0.000195432
-0.000404218
-0.000390707
-0.000199375
-0.000451769
-0.000554102
-0.000146424
-0.000486722
-0.000576536
0.000115797
-0.000291957
-0.000444223
0.00646139
0.0192031
0.0358891
0.0640096
0.11713
0.245975
0.674089
2.42225
2.44198
0.766397
0.603458
0.482616
0.189152
0.161376
0.130806
0.0619251
0.0619548
0.0521484
0.0237199
0.0161375
0.0187643
0.016573
0.00907579
0.00954169
0.00830512
0.00461825
0.00477928
0.0041179
0.00219855
0.00170733
0.00218038
0.00195598
0.000990384
0.000774424
0.000601351
0.000340382
9.01588e-05
1.7866e-07
1.15257e-05
-0.000295281
-0.000327075
-7.88315e-05
-0.000112305
-0.000454881
-0.000488875
-0.000257122
-0.000580856
-0.000589121
-0.000287729
-0.00057495
-0.000554565
-0.000185867
-0.000169101
-0.000484266
-0.000477014
-0.00019461
-0.000547193
-0.000635482
-0.000146309
-0.000525361
-0.000656044
6.47701e-05
-0.000167965
-0.000325228
0.00390523
0.011476
0.0213211
0.0381932
0.0708033
0.155014
0.500382
2.88629
2.89915
0.570028
0.582233
0.503022
0.130741
0.146106
0.12687
0.0414604
0.0564687
0.0503922
0.0154205
0.010046
0.0166752
0.0153802
0.00593449
0.00835607
0.00760254
0.0030034
0.00412416
0.0037195
0.0013914
0.00106321
0.00197581
0.00184303
0.000639031
0.000560587
0.000454048
0.000199462
-6.03018e-05
-0.00011532
-1.89364e-05
-0.000423052
-0.000441387
-6.61064e-05
-8.80608e-05
-0.000551282
-0.000572957
-0.00019474
-0.000671108
-0.000676184
-0.000215338
-0.000660118
-0.000646505
-0.000134352
-0.00012297
-0.000580843
-0.000577819
-0.000157504
-0.000658856
-0.000721717
-0.000123085
-0.000592531
-0.000720017
1.94764e-05
-4.95064e-05
-0.000177974
0.00129423
0.0038019
0.00704346
0.0126302
0.0235813
0.0533022
0.218955
3.46456
3.46908
0.249921
0.567208
0.539195
0.0529832
0.133489
0.126873
0.0162187
0.0524264
0.0503567
0.00581304
0.00354414
0.0151289
0.0147035
0.00226051
0.00740357
0.00714969
0.00113625
0.00358483
0.00344807
0.000506714
0.000377319
0.0018398
0.00179608
0.000239527
0.00035792
0.000321765
6.5056e-05
-0.000215649
-0.000234231
-1.97417e-05
-0.000566995
-0.000572908
-3.14668e-05
-3.99196e-05
-0.000668421
-0.000675967
-8.67734e-05
-0.000784065
-0.000785785
-9.49043e-05
-0.000767474
-0.000762587
-5.65964e-05
-5.20131e-05
-0.00069936
-0.000698664
-7.46164e-05
-0.000793787
-0.000818884
-6.13497e-05
-0.000701748
-0.000765055
-3.48439e-06
7.60658e-06
-5.07213e-05
)
;

boundaryField
{
    left
    {
        type            calculated;
        value           uniform 0;
    }
    right
    {
        type            calculated;
        value           uniform 0;
    }
    interface
    {
        type            calculated;
        value           nonuniform List<scalar> 
64
(
0.00129423
0.0038019
0.00704346
0.0126302
0.0235813
0.0533022
0.218955
3.46456
3.46908
0.249921
0.567208
0.539195
0.0529832
0.133489
0.126873
0.0162187
0.0524264
0.0503567
0.00581304
0.00354414
0.0151289
0.0147035
0.00226051
0.00740357
0.00714969
0.00113625
0.00358483
0.00344807
0.000506714
0.000377319
0.0018398
0.00179608
0.000239527
0.00035792
0.000321765
6.5056e-05
-0.000215649
-0.000234231
-1.97417e-05
-0.000566995
-0.000572908
-3.14668e-05
-3.99196e-05
-0.000668421
-0.000675967
-8.67734e-05
-0.000784065
-0.000785785
-9.49043e-05
-0.000767474
-0.000762587
-5.65964e-05
-5.20131e-05
-0.00069936
-0.000698664
-7.46164e-05
-0.000793787
-0.000818884
-6.13497e-05
-0.000701748
-0.000765055
-3.48439e-06
7.60658e-06
-5.07213e-05
)
;
    }
    bottom
    {
        type            calculated;
        value           nonuniform List<scalar> 
64
(
0.000839337
0.00247766
0.00407193
0.00557194
0.00690566
0.00806629
0.00900663
0.00969172
0.01011
0.0102633
0.0101676
0.00985231
0.00935696
0.00872675
0.00800742
0.00724122
0.00646427
0.00570525
0.00498518
0.00431805
0.00371183
0.00316972
0.00269137
0.00227396
0.00191311
0.00160358
0.00133982
0.00111627
0.000927686
0.000769203
0.000636447
0.000525542
0.000433102
0.000356203
0.000292344
0.000239395
0.000195562
0.000159333
0.000129444
0.00010484
8.46437e-05
6.81297e-05
5.46988e-05
4.38594e-05
3.52102e-05
2.84254e-05
2.3242e-05
1.94465e-05
1.68631e-05
1.53391e-05
1.47272e-05
1.48669e-05
1.55641e-05
1.65789e-05
1.76295e-05
1.84228e-05
1.87108e-05
1.83527e-05
1.73385e-05
1.57161e-05
1.3416e-05
1.01702e-05
6.04578e-06
1.9124e-06
)
;
    }
    defaultFaces
    {
        type            empty;
    }
}


// ************************************************************************* //
