/*--------------------------------*- C++ -*----------------------------------*\
| =========                 |                                                 |
| \\      /  F ield         | OpenFOAM: The Open Source CFD Toolbox           |
|  \\    /   O peration     | Version:  5.x                                   |
|   \\  /    A nd           | Web:      www.OpenFOAM.org                      |
|    \\/     M anipulation  |                                                 |
\*---------------------------------------------------------------------------*/
FoamFile
{
    version     2.0;
    format      ascii;
    class       volScalarField;
    location    "0.2";
    object      gradTy;
}
// * * * * * * * * * * * * * * * * * * * * * * * * * * * * * * * * * * * * * //

dimensions      [0 -1 0 1 0 0 0];

internalField   nonuniform List<scalar> 
2048
(
-34.613
-34.6093
-34.6021
-34.5915
-34.5777
-34.5612
-34.5424
-34.5218
-34.5
-34.4776
-34.4551
-34.4331
-34.4121
-34.3923
-34.374
-34.3574
-34.3425
-34.3293
-34.3177
-34.3076
-34.2989
-34.2915
-34.2852
-34.2799
-34.2754
-34.2716
-34.2684
-34.2658
-34.2636
-34.2618
-34.2603
-34.259
-34.258
-34.2572
-34.2565
-34.2559
-34.2554
-34.255
-34.2547
-34.2545
-34.2543
-34.2541
-34.254
-34.2539
-34.2538
-34.2537
-34.2537
-34.2536
-34.2536
-34.2536
-34.2535
-34.2535
-34.2535
-34.2534
-34.2534
-34.2534
-34.2533
-34.2533
-34.2532
-34.2532
-34.2532
-34.2531
-34.2531
-34.2531
-34.6117
-34.6079
-34.6005
-34.5897
-34.5756
-34.5587
-34.5395
-34.5183
-34.496
-34.4731
-34.4501
-34.4277
-34.4064
-34.3863
-34.3679
-34.3512
-34.3363
-34.3231
-34.3116
-34.3016
-34.293
-34.2857
-34.2795
-34.2742
-34.2698
-34.2661
-34.263
-34.2605
-34.2583
-34.2565
-34.2551
-34.2539
-34.2529
-34.252
-34.2514
-34.2508
-34.2504
-34.25
-34.2497
-34.2494
-34.2493
-34.2491
-34.249
-34.2489
-34.2488
-34.2487
-34.2487
-34.2486
-34.2486
-34.2486
-34.2485
-34.2485
-34.2485
-34.2484
-34.2484
-34.2484
-34.2483
-34.2483
-34.2482
-34.2482
-34.2482
-34.2481
-34.2481
-34.2481
-34.6093
-34.6053
-34.5977
-34.5864
-34.5717
-34.5541
-34.5339
-34.5118
-34.4884
-34.4645
-34.4407
-34.4175
-34.3955
-34.3751
-34.3563
-34.3395
-34.3246
-34.3114
-34.3
-34.2902
-34.2818
-34.2747
-34.2687
-34.2636
-34.2593
-34.2558
-34.2528
-34.2504
-34.2483
-34.2466
-34.2452
-34.2441
-34.2431
-34.2424
-34.2417
-34.2412
-34.2408
-34.2404
-34.2401
-34.2399
-34.2397
-34.2396
-34.2395
-34.2394
-34.2393
-34.2392
-34.2392
-34.2392
-34.2391
-34.2391
-34.2391
-34.239
-34.239
-34.239
-34.2389
-34.2389
-34.2389
-34.2388
-34.2388
-34.2387
-34.2387
-34.2387
-34.2386
-34.2386
-34.606
-34.6019
-34.5938
-34.5819
-34.5663
-34.5476
-34.5261
-34.5026
-34.4778
-34.4524
-34.4272
-34.403
-34.3801
-34.359
-34.3399
-34.3229
-34.3079
-34.2949
-34.2837
-34.2742
-34.266
-34.2592
-34.2534
-34.2486
-34.2446
-34.2412
-34.2385
-34.2362
-34.2343
-34.2327
-34.2314
-34.2303
-34.2294
-34.2287
-34.2281
-34.2277
-34.2273
-34.2269
-34.2267
-34.2265
-34.2263
-34.2262
-34.2261
-34.226
-34.2259
-34.2259
-34.2258
-34.2258
-34.2258
-34.2257
-34.2257
-34.2257
-34.2257
-34.2256
-34.2256
-34.2256
-34.2255
-34.2255
-34.2254
-34.2254
-34.2254
-34.2253
-34.2253
-34.2253
-34.6021
-34.5978
-34.5892
-34.5765
-34.5599
-34.5397
-34.5166
-34.4912
-34.4644
-34.4371
-34.4102
-34.3845
-34.3605
-34.3387
-34.3192
-34.302
-34.287
-34.2742
-34.2633
-34.2541
-34.2463
-34.2398
-34.2344
-34.2299
-34.2262
-34.2231
-34.2205
-34.2184
-34.2167
-34.2153
-34.2141
-34.2131
-34.2123
-34.2117
-34.2112
-34.2107
-34.2104
-34.2101
-34.2099
-34.2097
-34.2095
-34.2094
-34.2093
-34.2093
-34.2092
-34.2092
-34.2091
-34.2091
-34.2091
-34.209
-34.209
-34.209
-34.209
-34.209
-34.2089
-34.2089
-34.2088
-34.2088
-34.2088
-34.2087
-34.2087
-34.2087
-34.2086
-34.2086
-34.5979
-34.5933
-34.5842
-34.5706
-34.5526
-34.5308
-34.5056
-34.4779
-34.4486
-34.419
-34.39
-34.3625
-34.3373
-34.3145
-34.2945
-34.2772
-34.2623
-34.2498
-34.2392
-34.2304
-34.2231
-34.2171
-34.2121
-34.208
-34.2046
-34.2018
-34.1995
-34.1977
-34.1961
-34.1949
-34.1938
-34.193
-34.1923
-34.1917
-34.1913
-34.1909
-34.1906
-34.1903
-34.1901
-34.19
-34.1899
-34.1898
-34.1897
-34.1896
-34.1896
-34.1896
-34.1895
-34.1895
-34.1895
-34.1895
-34.1895
-34.1895
-34.1894
-34.1894
-34.1894
-34.1893
-34.1893
-34.1893
-34.1892
-34.1892
-34.1891
-34.1891
-34.1891
-34.1891
-34.5936
-34.5887
-34.579
-34.5644
-34.545
-34.5212
-34.4936
-34.4631
-34.4309
-34.3984
-34.3668
-34.3373
-34.3106
-34.2869
-34.2664
-34.249
-34.2343
-34.2222
-34.2121
-34.2038
-34.1971
-34.1916
-34.1871
-34.1834
-34.1804
-34.178
-34.176
-34.1743
-34.173
-34.1719
-34.1711
-34.1703
-34.1698
-34.1693
-34.1689
-34.1686
-34.1683
-34.1681
-34.168
-34.1679
-34.1678
-34.1677
-34.1676
-34.1676
-34.1676
-34.1675
-34.1675
-34.1675
-34.1675
-34.1675
-34.1675
-34.1675
-34.1675
-34.1674
-34.1674
-34.1674
-34.1673
-34.1673
-34.1673
-34.1672
-34.1672
-34.1672
-34.1671
-34.1671
-34.5893
-34.5841
-34.5738
-34.5582
-34.5373
-34.5113
-34.4809
-34.447
-34.4113
-34.3754
-34.341
-34.3091
-34.2807
-34.2561
-34.2352
-34.2178
-34.2034
-34.1918
-34.1823
-34.1747
-34.1686
-34.1637
-34.1597
-34.1565
-34.154
-34.1519
-34.1503
-34.1489
-34.1478
-34.1469
-34.1462
-34.1456
-34.1452
-34.1448
-34.1445
-34.1442
-34.144
-34.1439
-34.1438
-34.1437
-34.1436
-34.1435
-34.1435
-34.1435
-34.1434
-34.1434
-34.1434
-34.1434
-34.1434
-34.1434
-34.1434
-34.1434
-34.1434
-34.1434
-34.1434
-34.1434
-34.1433
-34.1433
-34.1432
-34.1432
-34.1432
-34.1432
-34.1431
-34.1431
-34.5852
-34.5798
-34.569
-34.5524
-34.5299
-34.5015
-34.4678
-34.4301
-34.3903
-34.3504
-34.3125
-34.2781
-34.2479
-34.2223
-34.2011
-34.1839
-34.1701
-34.159
-34.1503
-34.1435
-34.1381
-34.1338
-34.1305
-34.1279
-34.1258
-34.1241
-34.1228
-34.1217
-34.1209
-34.1202
-34.1196
-34.1192
-34.1188
-34.1186
-34.1183
-34.1182
-34.118
-34.1179
-34.1178
-34.1178
-34.1177
-34.1177
-34.1177
-34.1177
-34.1176
-34.1176
-34.1177
-34.1177
-34.1177
-34.1177
-34.1177
-34.1177
-34.1177
-34.1177
-34.1177
-34.1176
-34.1176
-34.1176
-34.1175
-34.1175
-34.1175
-34.1175
-34.1174
-34.1175
-34.5814
-34.5759
-34.5646
-34.5472
-34.523
-34.4921
-34.4548
-34.4127
-34.3679
-34.3234
-34.2816
-34.2443
-34.2123
-34.1859
-34.1646
-34.1477
-34.1345
-34.1243
-34.1165
-34.1105
-34.106
-34.1025
-34.0998
-34.0977
-34.0961
-34.0949
-34.0939
-34.0931
-34.0925
-34.092
-34.0917
-34.0914
-34.0911
-34.091
-34.0908
-34.0907
-34.0906
-34.0906
-34.0905
-34.0905
-34.0905
-34.0905
-34.0904
-34.0905
-34.0905
-34.0905
-34.0905
-34.0905
-34.0905
-34.0905
-34.0906
-34.0906
-34.0906
-34.0906
-34.0906
-34.0905
-34.0905
-34.0905
-34.0905
-34.0904
-34.0904
-34.0904
-34.0904
-34.0905
-34.578
-34.5725
-34.5609
-34.5428
-34.5171
-34.4836
-34.4423
-34.395
-34.3445
-34.2945
-34.2483
-34.2079
-34.1742
-34.147
-34.1258
-34.1095
-34.0972
-34.0881
-34.0813
-34.0763
-34.0726
-34.0699
-34.0679
-34.0664
-34.0653
-34.0645
-34.0639
-34.0634
-34.0631
-34.0628
-34.0626
-34.0625
-34.0624
-34.0623
-34.0622
-34.0622
-34.0621
-34.0621
-34.0621
-34.0621
-34.0621
-34.0621
-34.0621
-34.0622
-34.0622
-34.0622
-34.0622
-34.0623
-34.0623
-34.0623
-34.0623
-34.0624
-34.0624
-34.0624
-34.0624
-34.0624
-34.0623
-34.0623
-34.0623
-34.0623
-34.0623
-34.0623
-34.0623
-34.0624
-34.575
-34.5695
-34.558
-34.5395
-34.5125
-34.4763
-34.4306
-34.3773
-34.3201
-34.2638
-34.2126
-34.1689
-34.1335
-34.1059
-34.085
-34.0696
-34.0585
-34.0505
-34.0449
-34.041
-34.0383
-34.0365
-34.0352
-34.0344
-34.0338
-34.0334
-34.0331
-34.033
-34.0329
-34.0328
-34.0328
-34.0328
-34.0328
-34.0328
-34.0328
-34.0328
-34.0328
-34.0329
-34.0329
-34.0329
-34.033
-34.033
-34.033
-34.0331
-34.0331
-34.0331
-34.0332
-34.0332
-34.0332
-34.0333
-34.0333
-34.0333
-34.0334
-34.0334
-34.0334
-34.0334
-34.0333
-34.0333
-34.0333
-34.0333
-34.0334
-34.0334
-34.0334
-34.0335
-34.5723
-34.5672
-34.5559
-34.5374
-34.5095
-34.4707
-34.4202
-34.36
-34.2948
-34.2312
-34.1744
-34.1273
-34.0904
-34.0626
-34.0425
-34.0284
-34.0186
-34.0121
-34.0078
-34.0051
-34.0035
-34.0025
-34.002
-34.0018
-34.0017
-34.0017
-34.0018
-34.002
-34.0021
-34.0023
-34.0024
-34.0025
-34.0026
-34.0027
-34.0028
-34.0029
-34.003
-34.003
-34.0031
-34.0032
-34.0032
-34.0033
-34.0033
-34.0034
-34.0034
-34.0035
-34.0035
-34.0036
-34.0036
-34.0037
-34.0037
-34.0037
-34.0038
-34.0038
-34.0038
-34.0038
-34.0038
-34.0038
-34.0038
-34.0038
-34.0039
-34.0039
-34.004
-34.0041
-34.5699
-34.5653
-34.5546
-34.5368
-34.5084
-34.4673
-34.4117
-34.3434
-34.2688
-34.1966
-34.1337
-34.0831
-34.045
-34.0175
-33.9986
-33.986
-33.978
-33.973
-33.9702
-33.9688
-33.9682
-33.9682
-33.9685
-33.9689
-33.9693
-33.9698
-33.9703
-33.9707
-33.971
-33.9714
-33.9717
-33.9719
-33.9721
-33.9723
-33.9725
-33.9726
-33.9728
-33.9729
-33.973
-33.9731
-33.9731
-33.9732
-33.9733
-33.9733
-33.9734
-33.9735
-33.9735
-33.9736
-33.9736
-33.9737
-33.9737
-33.9738
-33.9738
-33.9738
-33.9739
-33.9739
-33.9739
-33.9739
-33.9739
-33.9739
-33.974
-33.9741
-33.9742
-33.9743
-34.5676
-34.5637
-34.5542
-34.5376
-34.5094
-34.4665
-34.4055
-34.328
-34.2419
-34.1597
-34.0902
-34.0363
-33.9973
-33.9708
-33.9535
-33.9429
-33.9368
-33.9336
-33.9324
-33.9323
-33.9329
-33.9339
-33.9349
-33.9359
-33.9369
-33.9378
-33.9386
-33.9392
-33.9398
-33.9404
-33.9408
-33.9412
-33.9415
-33.9418
-33.942
-33.9422
-33.9424
-33.9425
-33.9427
-33.9428
-33.9429
-33.943
-33.943
-33.9431
-33.9432
-33.9433
-33.9433
-33.9434
-33.9434
-33.9435
-33.9436
-33.9436
-33.9436
-33.9437
-33.9437
-33.9437
-33.9438
-33.9438
-33.9438
-33.9439
-33.944
-33.9441
-33.9442
-33.9443
-34.5653
-34.5624
-34.5545
-34.5399
-34.5129
-34.4689
-34.4025
-34.3141
-34.2141
-34.1202
-34.0436
-33.9866
-33.9475
-33.9225
-33.9074
-33.8992
-33.8953
-33.8942
-33.8946
-33.896
-33.8977
-33.8996
-33.9014
-33.903
-33.9045
-33.9058
-33.9069
-33.9079
-33.9087
-33.9094
-33.9099
-33.9104
-33.9108
-33.9112
-33.9115
-33.9117
-33.912
-33.9121
-33.9123
-33.9124
-33.9126
-33.9127
-33.9128
-33.9129
-33.9129
-33.913
-33.9131
-33.9132
-33.9132
-33.9133
-33.9133
-33.9134
-33.9135
-33.9135
-33.9136
-33.9136
-33.9136
-33.9137
-33.9137
-33.9138
-33.9139
-33.914
-33.9142
-33.9142
-34.5628
-34.5612
-34.5555
-34.5437
-34.5191
-34.475
-34.4032
-34.3022
-34.1851
-34.0776
-33.9936
-33.9341
-33.8956
-33.8729
-33.8607
-33.8552
-33.8538
-33.8548
-33.857
-33.8598
-33.8628
-33.8656
-33.8681
-33.8704
-33.8723
-33.874
-33.8754
-33.8766
-33.8776
-33.8785
-33.8792
-33.8798
-33.8803
-33.8807
-33.8811
-33.8814
-33.8816
-33.8818
-33.882
-33.8822
-33.8823
-33.8825
-33.8826
-33.8827
-33.8828
-33.8828
-33.8829
-33.883
-33.8831
-33.8831
-33.8832
-33.8833
-33.8833
-33.8834
-33.8835
-33.8835
-33.8836
-33.8836
-33.8837
-33.8838
-33.884
-33.884
-33.8842
-33.8842
-34.5599
-34.5598
-34.5568
-34.5488
-34.5279
-34.4853
-34.4087
-34.2931
-34.1544
-34.0312
-33.9398
-33.8785
-33.8417
-33.8222
-33.8134
-33.8111
-33.8125
-33.8157
-33.8197
-33.8241
-33.8282
-33.8319
-33.8352
-33.838
-33.8404
-33.8424
-33.8441
-33.8456
-33.8468
-33.8478
-33.8486
-33.8493
-33.8499
-33.8504
-33.8508
-33.8511
-33.8514
-33.8517
-33.8519
-33.8521
-33.8522
-33.8524
-33.8525
-33.8526
-33.8527
-33.8528
-33.8529
-33.853
-33.8531
-33.8531
-33.8532
-33.8533
-33.8533
-33.8534
-33.8535
-33.8535
-33.8536
-33.8537
-33.8538
-33.8539
-33.8541
-33.8541
-33.8543
-33.8542
-34.5565
-34.558
-34.5583
-34.5551
-34.5396
-34.5004
-34.4201
-34.2876
-34.1214
-33.98
-33.882
-33.8199
-33.7859
-33.7707
-33.7659
-33.7672
-33.7715
-33.777
-33.7829
-33.7887
-33.7941
-33.7987
-33.8026
-33.806
-33.8088
-33.8112
-33.8131
-33.8148
-33.8162
-33.8173
-33.8183
-33.8191
-33.8197
-33.8203
-33.8207
-33.8211
-33.8214
-33.8217
-33.822
-33.8222
-33.8223
-33.8225
-33.8226
-33.8227
-33.8228
-33.8229
-33.823
-33.8231
-33.8232
-33.8233
-33.8234
-33.8234
-33.8235
-33.8236
-33.8237
-33.8238
-33.8238
-33.824
-33.8241
-33.8242
-33.8244
-33.8243
-33.8245
-33.8244
-34.5523
-34.5556
-34.5598
-34.5622
-34.5539
-34.5208
-34.4388
-34.287
-34.0847
-33.9228
-33.8197
-33.7581
-33.7284
-33.7185
-33.7183
-33.7235
-33.731
-33.7388
-33.7465
-33.7539
-33.7605
-33.7659
-33.7705
-33.7744
-33.7776
-33.7802
-33.7825
-33.7843
-33.7859
-33.7872
-33.7882
-33.7891
-33.7898
-33.7904
-33.7909
-33.7913
-33.7917
-33.792
-33.7922
-33.7925
-33.7927
-33.7928
-33.793
-33.7931
-33.7932
-33.7933
-33.7934
-33.7935
-33.7936
-33.7937
-33.7938
-33.7938
-33.7939
-33.794
-33.7941
-33.7942
-33.7943
-33.7944
-33.7946
-33.7947
-33.7949
-33.7948
-33.7949
-33.7948
-34.5472
-34.5523
-34.5608
-34.5698
-34.5707
-34.5468
-34.4663
-34.2931
-34.0428
-33.8584
-33.7528
-33.6931
-33.6694
-33.6662
-33.6709
-33.6804
-33.6912
-33.7012
-33.7108
-33.7198
-33.7274
-33.7336
-33.7389
-33.7432
-33.7467
-33.7497
-33.7522
-33.7542
-33.7559
-33.7573
-33.7585
-33.7594
-33.7602
-33.7608
-33.7613
-33.7618
-33.7622
-33.7625
-33.7628
-33.763
-33.7633
-33.7634
-33.7636
-33.7637
-33.7638
-33.7639
-33.764
-33.7641
-33.7642
-33.7643
-33.7644
-33.7645
-33.7646
-33.7647
-33.7648
-33.7649
-33.765
-33.7652
-33.7653
-33.7654
-33.7657
-33.7655
-33.7656
-33.7655
-34.5411
-34.5479
-34.5612
-34.5775
-34.5897
-34.5788
-34.5047
-34.3087
-33.9928
-33.7851
-33.6817
-33.625
-33.6091
-33.614
-33.6239
-33.638
-33.6523
-33.6643
-33.6757
-33.6863
-33.6951
-33.702
-33.7078
-33.7126
-33.7164
-33.7196
-33.7223
-33.7245
-33.7263
-33.7279
-33.7291
-33.7301
-33.7309
-33.7316
-33.7322
-33.7326
-33.7331
-33.7334
-33.7337
-33.734
-33.7342
-33.7344
-33.7345
-33.7347
-33.7348
-33.7349
-33.735
-33.7351
-33.7352
-33.7353
-33.7354
-33.7355
-33.7356
-33.7357
-33.7358
-33.7359
-33.7361
-33.7363
-33.7364
-33.7365
-33.7368
-33.7366
-33.7365
-33.7366
-34.5339
-34.5424
-34.5605
-34.5849
-34.6101
-34.6168
-34.5561
-34.3381
-33.9308
-33.7011
-33.6069
-33.554
-33.548
-33.5627
-33.5777
-33.5965
-33.6146
-33.6283
-33.6415
-33.6536
-33.6636
-33.671
-33.6773
-33.6826
-33.6866
-33.6901
-33.693
-33.6953
-33.6972
-33.6989
-33.7002
-33.7012
-33.7021
-33.7028
-33.7034
-33.704
-33.7044
-33.7048
-33.7051
-33.7054
-33.7056
-33.7058
-33.7059
-33.7061
-33.7062
-33.7063
-33.7064
-33.7066
-33.7067
-33.7068
-33.7069
-33.707
-33.707
-33.7071
-33.7073
-33.7074
-33.7075
-33.7078
-33.708
-33.708
-33.7083
-33.7081
-33.708
-33.7082
-34.5255
-34.5356
-34.5587
-34.5914
-34.6315
-34.6605
-34.6229
-34.3873
-33.8505
-33.6046
-33.5298
-33.4799
-33.4865
-33.5129
-33.5323
-33.5562
-33.5783
-33.5932
-33.6082
-33.622
-33.6331
-33.6408
-33.6476
-33.6533
-33.6575
-33.6612
-33.6644
-33.6667
-33.6688
-33.6706
-33.672
-33.673
-33.6739
-33.6747
-33.6753
-33.6759
-33.6763
-33.6767
-33.677
-33.6773
-33.6776
-33.6778
-33.6779
-33.678
-33.6782
-33.6783
-33.6784
-33.6786
-33.6787
-33.6788
-33.6789
-33.679
-33.679
-33.6791
-33.6793
-33.6795
-33.6796
-33.6799
-33.6801
-33.68
-33.6803
-33.6803
-33.68
-33.6804
-34.5159
-34.5276
-34.5554
-34.5966
-34.6527
-34.7091
-34.7073
-34.4656
-33.7428
-33.4937
-33.4529
-33.4026
-33.425
-33.4653
-33.4878
-33.5174
-33.5438
-33.5591
-33.5759
-33.5915
-33.6037
-33.6115
-33.6189
-33.625
-33.6292
-33.6332
-33.6365
-33.6389
-33.6411
-33.643
-33.6445
-33.6455
-33.6464
-33.6472
-33.6479
-33.6485
-33.6489
-33.6494
-33.6497
-33.65
-33.6503
-33.6505
-33.6506
-33.6507
-33.6509
-33.651
-33.6511
-33.6513
-33.6514
-33.6515
-33.6517
-33.6517
-33.6518
-33.6519
-33.6521
-33.6522
-33.6524
-33.6526
-33.6529
-33.6528
-33.6531
-33.6531
-33.6528
-33.6533
-34.505
-34.5183
-34.5504
-34.6
-34.6728
-34.761
-34.8109
-34.5862
-33.5939
-33.3673
-33.3796
-33.3211
-33.364
-33.4211
-33.4441
-33.4801
-33.5113
-33.5259
-33.5447
-33.5622
-33.5756
-33.583
-33.591
-33.5977
-33.6017
-33.606
-33.6096
-33.6119
-33.6142
-33.6163
-33.6179
-33.6188
-33.6197
-33.6206
-33.6213
-33.6219
-33.6224
-33.6228
-33.6231
-33.6234
-33.6238
-33.6239
-33.6241
-33.6242
-33.6244
-33.6245
-33.6246
-33.6248
-33.6249
-33.625
-33.6252
-33.6252
-33.6252
-33.6253
-33.6256
-33.6257
-33.6259
-33.6262
-33.6264
-33.6264
-33.6266
-33.6268
-33.6265
-33.6269
-34.4929
-34.5079
-34.5435
-34.601
-34.6903
-34.8139
-34.934
-34.7686
-33.384
-33.2248
-33.3152
-33.2339
-33.3039
-33.3814
-33.4008
-33.4444
-33.4814
-33.4934
-33.5146
-33.5342
-33.5488
-33.5554
-33.5641
-33.5714
-33.575
-33.5796
-33.5835
-33.5856
-33.5881
-33.5903
-33.592
-33.5928
-33.5938
-33.5947
-33.5954
-33.596
-33.5965
-33.597
-33.5973
-33.5976
-33.598
-33.5982
-33.5982
-33.5983
-33.5987
-33.5987
-33.5988
-33.5991
-33.5991
-33.5992
-33.5994
-33.5995
-33.5995
-33.5995
-33.5999
-33.6
-33.6001
-33.6005
-33.6007
-33.6006
-33.6008
-33.6012
-33.6009
-33.6011
-34.4796
-34.4962
-34.5347
-34.5992
-34.7039
-34.8646
-35.0746
-35.0404
-33.0846
-33.0678
-33.2667
-33.1377
-33.2453
-33.3475
-33.3568
-33.4102
-33.4542
-33.461
-33.4853
-33.5072
-33.5233
-33.5283
-33.5379
-33.546
-33.5489
-33.554
-33.5582
-33.5599
-33.5626
-33.565
-33.5669
-33.5674
-33.5685
-33.5695
-33.5702
-33.5708
-33.5713
-33.5718
-33.5721
-33.5724
-33.5729
-33.573
-33.5731
-33.5731
-33.5735
-33.5735
-33.5735
-33.574
-33.574
-33.5739
-33.5743
-33.5743
-33.5743
-33.5743
-33.5747
-33.5748
-33.5749
-33.5754
-33.5755
-33.5755
-33.5757
-33.5762
-33.5759
-33.5757
-34.465
-34.4834
-34.5237
-34.5941
-34.7123
-34.9091
-35.2268
-35.4408
-32.6554
-32.901
-33.2436
-33.0277
-33.1888
-33.3211
-33.3109
-33.3776
-33.4302
-33.428
-33.4569
-33.4812
-33.4991
-33.5013
-33.5123
-33.5214
-33.523
-33.5288
-33.5336
-33.5346
-33.5377
-33.5402
-33.5422
-33.5424
-33.5436
-33.5447
-33.5453
-33.546
-33.5465
-33.5471
-33.5473
-33.5475
-33.5482
-33.5483
-33.5483
-33.5483
-33.5489
-33.5488
-33.5487
-33.5493
-33.5492
-33.5491
-33.5497
-33.5496
-33.5495
-33.5495
-33.5501
-33.5501
-33.5501
-33.5508
-33.5508
-33.5508
-33.551
-33.5515
-33.5513
-33.5507
-34.4493
-34.4693
-34.5109
-34.5856
-34.7145
-34.9433
-35.3793
-36.0245
-32.0411
-32.7339
-33.2582
-32.8965
-33.136
-33.3048
-33.2611
-33.3466
-33.4102
-33.3937
-33.4293
-33.456
-33.4762
-33.4742
-33.4873
-33.4978
-33.4974
-33.5041
-33.5095
-33.5097
-33.5131
-33.5159
-33.5181
-33.5177
-33.5192
-33.5204
-33.5209
-33.5216
-33.5221
-33.5228
-33.523
-33.5231
-33.524
-33.524
-33.5239
-33.5239
-33.5246
-33.5245
-33.5243
-33.5251
-33.5249
-33.5247
-33.5255
-33.5253
-33.5252
-33.5251
-33.5259
-33.5258
-33.5257
-33.5266
-33.5264
-33.5265
-33.5268
-33.5271
-33.5272
-33.5261
-34.4326
-34.4541
-34.4967
-34.5741
-34.7104
-34.9633
-35.5128
-36.8665
-31.1666
-32.5837
-33.3264
-32.7339
-33.0896
-33.3021
-33.2054
-33.3181
-33.3959
-33.3576
-33.4032
-33.4322
-33.4556
-33.4473
-33.4634
-33.4757
-33.4722
-33.4805
-33.4868
-33.4854
-33.4895
-33.4925
-33.4951
-33.4939
-33.4957
-33.497
-33.4975
-33.4982
-33.4986
-33.4994
-33.4996
-33.4996
-33.5007
-33.5006
-33.5005
-33.5003
-33.5014
-33.5011
-33.5007
-33.5019
-33.5015
-33.5011
-33.5023
-33.502
-33.5018
-33.5015
-33.5027
-33.5024
-33.5022
-33.5034
-33.5029
-33.5031
-33.5037
-33.5035
-33.5039
-33.5028
-34.4154
-34.4378
-34.4811
-34.5598
-34.6997
-34.9657
-35.596
-38.0673
-29.9309
-32.4771
-33.4664
-32.5251
-33.053
-33.3167
-33.1402
-33.2926
-33.3886
-33.3182
-33.3791
-33.4096
-33.4376
-33.42
-33.4406
-33.4553
-33.4474
-33.4578
-33.4652
-33.4618
-33.4669
-33.4699
-33.4731
-33.4708
-33.4731
-33.4745
-33.4748
-33.4756
-33.476
-33.477
-33.477
-33.4768
-33.4784
-33.4781
-33.478
-33.4775
-33.4791
-33.4785
-33.4779
-33.4797
-33.479
-33.4783
-33.48
-33.4795
-33.4792
-33.4787
-33.4804
-33.4799
-33.4794
-33.4812
-33.4803
-33.4804
-33.4815
-33.4808
-33.4816
-33.4806
)
;

boundaryField
{
    left
    {
        type            calculated;
        value           nonuniform List<scalar> 
32
(
-34.613
-34.6117
-34.6093
-34.606
-34.6021
-34.5979
-34.5936
-34.5893
-34.5852
-34.5814
-34.578
-34.575
-34.5723
-34.5699
-34.5676
-34.5653
-34.5628
-34.5599
-34.5565
-34.5523
-34.5472
-34.5411
-34.5339
-34.5255
-34.5159
-34.505
-34.4929
-34.4796
-34.465
-34.4493
-34.4326
-34.4154
)
;
    }
    right
    {
        type            calculated;
        value           nonuniform List<scalar> 
32
(
-34.2531
-34.2481
-34.2386
-34.2253
-34.2086
-34.1891
-34.1671
-34.1431
-34.1175
-34.0905
-34.0624
-34.0335
-34.0041
-33.9743
-33.9443
-33.9142
-33.8842
-33.8542
-33.8244
-33.7948
-33.7655
-33.7366
-33.7082
-33.6804
-33.6533
-33.6269
-33.6011
-33.5757
-33.5507
-33.5261
-33.5028
-33.4806
)
;
    }
    interface
    {
        type            calculated;
        value           nonuniform List<scalar> 
64
(
-34.4068
-34.4293
-34.4729
-34.5519
-34.6927
-34.9622
-35.6201
-38.7718
-29.2083
-32.4386
-33.5567
-32.4068
-33.0375
-33.3287
-33.1046
-33.2806
-33.3868
-33.2973
-33.3674
-33.3985
-33.4291
-33.4061
-33.4293
-33.4454
-33.4349
-33.4466
-33.4547
-33.45
-33.4557
-33.4588
-33.4623
-33.4593
-33.462
-33.4634
-33.4636
-33.4644
-33.4647
-33.4659
-33.4659
-33.4655
-33.4673
-33.4669
-33.4668
-33.4662
-33.4681
-33.4674
-33.4666
-33.4686
-33.4678
-33.467
-33.469
-33.4683
-33.4681
-33.4674
-33.4694
-33.4687
-33.4681
-33.4702
-33.4691
-33.4691
-33.4705
-33.4695
-33.4705
-33.4696
)
;
    }
    bottom
    {
        type            calculated;
        value           nonuniform List<scalar> 
64
(
-34.6133
-34.6096
-34.6025
-34.5919
-34.5783
-34.5619
-34.5432
-34.5227
-34.501
-34.4787
-34.4564
-34.4345
-34.4135
-34.3938
-34.3756
-34.359
-34.3441
-34.3309
-34.3193
-34.3092
-34.3005
-34.293
-34.2867
-34.2813
-34.2768
-34.273
-34.2698
-34.2672
-34.265
-34.2631
-34.2616
-34.2604
-34.2593
-34.2585
-34.2578
-34.2572
-34.2567
-34.2564
-34.2561
-34.2558
-34.2556
-34.2554
-34.2553
-34.2552
-34.2551
-34.255
-34.255
-34.2549
-34.2549
-34.2549
-34.2548
-34.2548
-34.2548
-34.2547
-34.2547
-34.2547
-34.2546
-34.2546
-34.2545
-34.2545
-34.2545
-34.2544
-34.2544
-34.2544
)
;
    }
    defaultFaces
    {
        type            empty;
    }
}


// ************************************************************************* //
