/*--------------------------------*- C++ -*----------------------------------*\
| =========                 |                                                 |
| \\      /  F ield         | OpenFOAM: The Open Source CFD Toolbox           |
|  \\    /   O peration     | Version:  5.x                                   |
|   \\  /    A nd           | Web:      www.OpenFOAM.org                      |
|    \\/     M anipulation  |                                                 |
\*---------------------------------------------------------------------------*/
FoamFile
{
    version     2.0;
    format      ascii;
    class       volScalarField;
    location    "9.6";
    object      T;
}
// * * * * * * * * * * * * * * * * * * * * * * * * * * * * * * * * * * * * * //

dimensions      [0 0 0 1 0 0 0];

internalField   nonuniform List<scalar> 
2048
(
9.85534
9.85603
9.85741
9.85946
9.86216
9.86546
9.86932
9.87368
9.87847
9.8836
9.889
9.89457
9.90023
9.9059
9.91151
9.917
9.92231
9.9274
9.93224
9.93682
9.94112
9.94513
9.94887
9.95234
9.95555
9.95851
9.96125
9.96377
9.96609
9.96822
9.97019
9.972
9.97367
9.9752
9.97661
9.97791
9.97909
9.98018
9.98116
9.98206
9.98288
9.98361
9.98428
9.98487
9.9854
9.98587
9.98629
9.98666
9.98698
9.98726
9.98751
9.98772
9.98791
9.98806
9.9882
9.98831
9.98841
9.98849
9.98855
9.9886
9.98864
9.98867
9.98869
9.9887
9.57176
9.57382
9.57791
9.58399
9.59199
9.60179
9.61326
9.62621
9.64043
9.65568
9.67171
9.68825
9.70505
9.72188
9.73851
9.75477
9.77049
9.78557
9.7999
9.81344
9.82616
9.83803
9.84908
9.85932
9.8688
9.87755
9.88562
9.89305
9.89989
9.9062
9.912
9.91735
9.92227
9.92679
9.93095
9.93477
9.93828
9.94148
9.94439
9.94705
9.94945
9.95162
9.95357
9.95532
9.95688
9.95827
9.9595
9.96059
9.96154
9.96237
9.9631
9.96373
9.96427
9.96473
9.96513
9.96546
9.96574
9.96597
9.96616
9.96631
9.96643
9.96651
9.96656
9.96659
9.29903
9.30241
9.30913
9.31913
9.33228
9.3484
9.36728
9.3886
9.41202
9.43714
9.46353
9.49075
9.51839
9.54605
9.57336
9.60003
9.62581
9.6505
9.67396
9.69609
9.71686
9.73624
9.75426
9.77096
9.78639
9.80064
9.81377
9.82587
9.837
9.84726
9.85671
9.8654
9.87341
9.88078
9.88755
9.89377
9.89947
9.90468
9.90943
9.91375
9.91766
9.92119
9.92436
9.92721
9.92975
9.932
9.934
9.93576
9.9373
9.93865
9.93983
9.94085
9.94173
9.94248
9.94312
9.94365
9.94411
9.94448
9.94478
9.94502
9.94521
9.94534
9.94543
9.94547
9.03589
9.04056
9.04985
9.06367
9.08186
9.1042
9.13036
9.15993
9.19242
9.22727
9.26387
9.30161
9.33988
9.37814
9.41588
9.45269
9.48821
9.52219
9.55444
9.58482
9.61329
9.63984
9.6645
9.68732
9.70841
9.72786
9.74578
9.76229
9.77748
9.79146
9.80435
9.81621
9.82713
9.83719
9.84643
9.85492
9.8627
9.86981
9.8763
9.88219
9.88752
9.89234
9.89666
9.90054
9.90399
9.90706
9.90977
9.91216
9.91426
9.9161
9.91769
9.91907
9.92025
9.92127
9.92213
9.92286
9.92347
9.92397
9.92438
9.92471
9.92495
9.92514
9.92525
9.92531
8.78131
8.78723
8.79903
8.81661
8.83977
8.86825
8.90164
8.93942
8.98094
9.02548
9.07223
9.1204
9.16919
9.2179
9.26588
9.31259
9.35761
9.4006
9.44132
9.47963
9.51548
9.54885
9.57981
9.60845
9.63488
9.65924
9.68167
9.70231
9.72131
9.73881
9.75492
9.76976
9.78343
9.79602
9.80759
9.81822
9.82796
9.83687
9.84499
9.85236
9.85904
9.86506
9.87046
9.8753
9.87961
9.88343
9.88681
9.88979
9.8924
9.89467
9.89665
9.89836
9.89983
9.90109
9.90216
9.90306
9.90381
9.90442
9.90493
9.90533
9.90563
9.90585
9.906
9.90607
8.53443
8.54159
8.55585
8.57712
8.6052
8.63978
8.68039
8.72638
8.77697
8.83123
8.88816
8.94674
9.00601
9.06508
9.12316
9.17961
9.23389
9.28563
9.33454
9.38047
9.42337
9.46324
9.50018
9.5343
9.56577
9.59474
9.62139
9.64591
9.66848
9.68925
9.70839
9.72602
9.74227
9.75723
9.77099
9.78364
9.79523
9.80582
9.81547
9.82424
9.83217
9.83932
9.84574
9.85147
9.85657
9.8611
9.86509
9.86861
9.87168
9.87436
9.87669
9.8787
9.88043
9.8819
9.88315
9.8842
9.88508
9.8858
9.88638
9.88685
9.8872
9.88746
9.88763
9.88771
8.29457
8.30293
8.3196
8.34451
8.37746
8.41812
8.46596
8.52024
8.57998
8.64406
8.71125
8.78032
8.85008
8.91947
8.98756
9.05358
9.11694
9.17718
9.234
9.28725
9.33688
9.38293
9.42552
9.46481
9.50099
9.53427
9.56488
9.59302
9.6189
9.64274
9.66469
9.68493
9.70358
9.72077
9.73659
9.75113
9.76445
9.77663
9.78772
9.7978
9.8069
9.8151
9.82245
9.82902
9.83485
9.84002
9.84458
9.84858
9.85208
9.85513
9.85777
9.86005
9.86201
9.86367
9.86508
9.86627
9.86725
9.86806
9.86872
9.86924
9.86963
9.86992
9.8701
9.8702
8.06116
8.07068
8.0897
8.11817
8.15594
8.20268
8.2578
8.32046
8.38951
8.46357
8.54118
8.62084
8.70115
8.78086
8.85889
8.93436
9.00661
9.07512
9.1396
9.19986
9.25591
9.30781
9.35572
9.39985
9.44045
9.47775
9.51203
9.54352
9.57249
9.59916
9.62373
9.6464
9.6673
9.68657
9.70432
9.72062
9.73557
9.74924
9.76168
9.77298
9.78318
9.79235
9.80057
9.8079
9.81441
9.82016
9.82523
9.82968
9.83356
9.83694
9.83986
9.84238
9.84453
9.84637
9.84792
9.84922
9.8503
9.85118
9.85189
9.85246
9.85289
9.8532
9.8534
9.8535
7.83375
7.84438
7.86567
7.89763
7.94015
7.99294
8.05542
8.1266
8.20514
8.28941
8.37764
8.46805
8.55901
8.64905
8.73697
8.82178
8.90274
8.97932
9.05118
9.11817
9.18031
9.23773
9.29064
9.33931
9.38401
9.42505
9.46272
9.49732
9.52913
9.55841
9.58541
9.61033
9.63333
9.65454
9.67409
9.69206
9.70853
9.72358
9.73729
9.74972
9.76094
9.77102
9.78004
9.78807
9.79519
9.80147
9.807
9.81185
9.81607
9.81974
9.82291
9.82564
9.82797
9.82995
9.83162
9.83301
9.83417
9.83511
9.83587
9.83647
9.83693
9.83725
9.83747
9.83757
7.61198
7.62367
7.64713
7.68245
7.72964
7.78847
7.85836
7.93823
8.02652
8.12127
8.22037
8.32173
8.42344
8.52386
8.62164
8.71569
8.8052
8.88961
8.96859
9.042
9.10992
9.17254
9.23013
9.28301
9.33152
9.37601
9.41681
9.45425
9.48868
9.52038
9.54961
9.57662
9.60156
9.62459
9.64582
9.66534
9.68324
9.6996
9.71448
9.72798
9.74014
9.75106
9.76081
9.76948
9.77715
9.78391
9.78985
9.79505
9.79958
9.8035
9.80689
9.80979
9.81227
9.81437
9.81614
9.81761
9.81883
9.81982
9.82062
9.82124
9.82172
9.82206
9.82228
9.82239
7.39558
7.40826
7.43376
7.4723
7.52402
7.58885
7.66623
7.755
7.85332
7.95887
8.06914
8.18167
8.29429
8.40513
8.51273
8.61591
8.71381
8.80584
8.89167
8.97121
9.04458
9.11206
9.17401
9.23079
9.28282
9.33047
9.37414
9.4142
9.45101
9.48491
9.51621
9.54514
9.5719
9.59662
9.61942
9.6404
9.65963
9.6772
9.69319
9.70767
9.72072
9.7324
9.74282
9.75206
9.76023
9.76742
9.77373
9.77924
9.78403
9.78817
9.79174
9.7948
9.7974
9.7996
9.80145
9.80298
9.80425
9.80528
9.8061
9.80674
9.80723
9.80757
9.8078
9.80791
7.18436
7.19794
7.22532
7.26687
7.32297
7.39371
7.47866
7.57655
7.68525
7.80198
7.92375
8.04771
8.17138
8.2927
8.41007
8.52228
8.6284
8.72784
8.82024
8.90559
8.98408
9.0561
9.12208
9.18247
9.23773
9.28828
9.33456
9.37699
9.41597
9.45188
9.48506
9.51578
9.54422
9.57052
9.59479
9.61713
9.63761
9.65633
9.67334
9.68874
9.7026
9.71499
9.72602
9.73578
9.74439
9.75196
9.75858
9.76436
9.76938
9.77371
9.77743
9.78061
9.78331
9.78559
9.7875
9.78909
9.79039
9.79144
9.79228
9.79293
9.79342
9.79377
9.79399
9.7941
6.97818
6.99255
7.02161
7.06594
7.12618
7.20272
7.29528
7.40255
7.52204
7.65039
7.78405
7.91971
8.05456
8.18639
8.31351
8.43462
8.5488
8.65541
8.75413
8.84496
8.92824
9.00446
9.07415
9.13785
9.19606
9.24926
9.29791
9.34248
9.38341
9.42114
9.45604
9.4884
9.51841
9.54619
9.57184
9.59546
9.61711
9.63689
9.65486
9.67112
9.68572
9.69876
9.71034
9.72056
9.72956
9.73746
9.74436
9.75037
9.75558
9.76007
9.76392
9.7672
9.76998
9.77232
9.77427
9.77589
9.77721
9.77827
9.77912
9.77977
9.78026
9.7806
9.78083
9.78093
6.77696
6.79198
6.82248
6.86929
6.93339
7.01555
7.11577
7.23272
7.36347
7.50394
7.64989
7.79753
7.94372
8.08608
8.22286
8.35276
8.47481
8.58839
8.69313
8.78912
8.87683
8.95692
9.03001
9.09673
9.15763
9.21322
9.26401
9.3105
9.35318
9.39254
9.42901
9.46289
9.49436
9.52352
9.55048
9.57529
9.59803
9.61881
9.63768
9.65473
9.67003
9.68366
9.69573
9.70636
9.7157
9.72388
9.73102
9.73722
9.74259
9.74721
9.75116
9.75452
9.75735
9.75974
9.76172
9.76335
9.76469
9.76575
9.76659
9.76723
9.76771
9.76805
9.76827
9.76837
6.58065
6.59618
6.62785
6.67677
6.74436
6.83189
6.93978
7.06674
7.20931
7.36247
7.52116
7.68107
7.83871
7.99159
8.13796
8.2765
8.40626
8.52658
8.63706
8.73786
8.82965
8.91326
8.98946
9.05892
9.12226
9.18001
9.23271
9.28091
9.32513
9.36594
9.40383
9.43911
9.47195
9.50243
9.5306
9.55653
9.5803
9.60201
9.62172
9.63952
9.65546
9.66963
9.68213
9.69311
9.70274
9.71116
9.7185
9.72487
9.73036
9.73508
9.73911
9.74252
9.7454
9.74781
9.74981
9.75145
9.75278
9.75384
9.75466
9.75529
9.75576
9.75608
9.75629
9.75639
6.38925
6.40513
6.43765
6.48826
6.55888
6.65145
6.76697
6.90433
7.0594
7.22587
7.39777
7.57024
7.73942
7.90277
8.05863
8.20566
8.34294
8.46981
8.58574
8.69097
8.78646
8.87327
8.95227
9.02421
9.08975
9.14944
9.20384
9.25354
9.29912
9.3412
9.38036
9.41696
9.45109
9.48279
9.51212
9.53911
9.56384
9.58642
9.60691
9.6254
9.64195
9.6566
9.66948
9.68077
9.69064
9.69926
9.70676
9.71326
9.71886
9.72365
9.72774
9.73119
9.73408
9.7365
9.7385
9.74014
9.74146
9.7425
9.7433
9.74391
9.74436
9.74467
9.74487
9.74496
6.20279
6.21884
6.25185
6.30366
6.37677
6.47394
6.597
6.74519
6.91358
7.09408
7.27965
7.46497
7.64573
7.81945
7.98468
8.14001
8.28464
8.41788
8.53897
8.64825
8.74704
8.83672
8.91823
8.99239
9.05994
9.12136
9.17726
9.22827
9.275
9.31817
9.35848
9.39631
9.43166
9.46453
9.49496
9.52293
9.54856
9.57196
9.59319
9.61233
9.62944
9.64453
9.65774
9.66927
9.67934
9.68812
9.69575
9.70235
9.70803
9.71288
9.717
9.72046
9.72336
9.72578
9.72777
9.72939
9.73069
9.73171
9.73249
9.73307
9.73349
9.73378
9.73396
9.73405
6.02132
6.03734
6.07047
6.12292
6.19787
6.29907
6.42949
6.58902
6.77174
6.96705
7.16675
7.3652
7.55753
7.74146
7.91592
8.07936
8.23114
8.37062
8.49659
8.60946
8.71114
8.80339
8.88713
8.96328
9.03264
9.0956
9.1528
9.20495
9.25265
9.29671
9.33804
9.37705
9.41358
9.44756
9.47903
9.50793
9.53439
9.55856
9.58048
9.60023
9.61787
9.63336
9.64684
9.65856
9.66879
9.67769
9.68542
9.69211
9.69784
9.70273
9.70686
9.71032
9.71321
9.71561
9.71758
9.71919
9.72045
9.72144
9.72218
9.72273
9.72312
9.72339
9.72356
9.72363
5.84488
5.86068
5.89353
5.94602
6.02206
6.12656
6.26405
6.43548
6.63383
6.84479
7.05902
7.2709
7.4747
7.6686
7.85217
8.02347
8.1822
8.32788
8.45842
8.5744
8.67851
8.77305
8.85877
8.93667
9.00768
9.072
9.13032
9.18346
9.23192
9.27669
9.31892
9.35908
9.39674
9.43178
9.46426
9.49403
9.52126
9.54616
9.56872
9.58904
9.6072
9.62305
9.63673
9.64859
9.65894
9.66794
9.67574
9.68248
9.68825
9.69315
9.69729
9.70073
9.70359
9.70596
9.70791
9.70948
9.71072
9.71166
9.71237
9.71288
9.71323
9.71347
9.71363
9.71369
5.67355
5.68893
5.72107
5.77296
5.84922
5.95614
6.10024
6.28421
6.49986
6.72733
6.95638
7.18207
7.39713
7.60063
7.79322
7.9721
8.13756
8.28951
8.42434
8.54283
8.64889
8.7455
8.83294
8.91237
8.98493
9.05043
9.10968
9.16369
9.21271
9.25796
9.30097
9.34231
9.38108
9.41712
9.45059
9.48116
9.50908
9.53469
9.55784
9.5787
9.59737
9.61355
9.62737
9.63931
9.64975
9.65881
9.66665
9.67344
9.67923
9.68412
9.68825
9.69166
9.69448
9.69681
9.69873
9.70027
9.70146
9.70236
9.70302
9.70348
9.7038
9.70401
9.70414
9.7042
5.50738
5.52215
5.55318
5.60377
5.67931
5.78755
5.93756
6.13476
6.36997
6.61477
6.85874
7.09872
7.32471
7.53728
7.73893
7.92501
8.09692
8.2554
8.39421
8.51451
8.622
8.72055
8.80945
8.89017
8.96424
9.03075
9.09073
9.14553
9.19492
9.24038
9.28407
9.32667
9.36651
9.40349
9.43795
9.46925
9.49779
9.52409
9.54778
9.56914
9.58836
9.60482
9.61871
9.63067
9.64118
9.65026
9.65812
9.66495
9.67074
9.67561
9.67971
9.68308
9.68584
9.68811
9.69
9.6915
9.69265
9.6935
9.6941
9.69452
9.69479
9.69497
9.69508
9.69513
5.34645
5.36042
5.38993
5.43854
5.5123
5.62056
5.77547
5.98658
6.24443
6.50724
6.76592
7.02096
7.2573
7.47821
7.68917
7.88194
8.05991
8.22551
8.36797
8.48921
8.59752
8.69801
8.78811
8.86986
8.9455
9.01282
9.07334
9.12891
9.17845
9.22382
9.26805
9.31209
9.35298
9.3908
9.4263
9.45824
9.48731
9.51432
9.53849
9.5603
9.58011
9.59683
9.61069
9.6226
9.63317
9.64226
9.65011
9.65698
9.66275
9.66758
9.67165
9.67496
9.67764
9.67986
9.68172
9.68318
9.68427
9.68506
9.68561
9.68597
9.68619
9.68633
9.68643
9.68647
5.19078
5.20379
5.2314
5.27735
5.34824
5.45498
5.61336
5.83898
6.12376
6.40494
6.67762
6.94896
7.1948
7.42298
7.64389
7.84262
8.02609
8.19984
8.34555
8.46665
8.57511
8.67778
8.76877
8.85121
8.92863
8.99655
9.05733
9.11378
9.16323
9.20813
9.25276
9.29855
9.34042
9.37896
9.41561
9.44808
9.47754
9.50533
9.5299
9.5521
9.57263
9.58955
9.60326
9.61505
9.62571
9.63477
9.64258
9.64949
9.65523
9.65999
9.66404
9.66728
9.66986
9.67201
9.67384
9.67526
9.67629
9.67702
9.67751
9.67782
9.67799
9.67809
9.67816
9.67819
5.04042
5.05231
5.07769
5.12033
5.18721
5.29066
5.45057
5.69099
6.00878
6.30809
6.59334
6.88307
7.13706
7.37101
7.60315
7.80679
7.99487
8.17855
8.32696
8.44655
8.55434
8.65978
8.75127
8.83395
8.9136
8.98181
9.04252
9.10013
9.14919
9.19316
9.23801
9.28605
9.3288
9.36785
9.40587
9.43872
9.46839
9.49712
9.52196
9.54444
9.56588
9.58297
9.59639
9.60797
9.61875
9.62775
9.63547
9.64247
9.64815
9.65282
9.65685
9.66001
9.66247
9.66454
9.66636
9.66774
9.6687
9.66936
9.66979
9.67004
9.67014
9.67021
9.67026
9.67028
4.89539
4.90604
4.92887
4.96761
5.02936
5.12757
5.28638
5.5413
5.90078
6.21697
6.51227
6.82383
7.08398
7.3215
7.5672
7.77416
7.96548
8.16191
8.31223
8.42856
8.53472
8.64404
8.73546
8.81777
8.90043
8.96851
9.02868
9.08798
9.13631
9.17875
9.22356
9.27467
9.31808
9.35734
9.39711
9.43009
9.45975
9.48967
9.51462
9.53724
9.5599
9.57705
9.59001
9.60128
9.61229
9.62118
9.62876
9.63589
9.64148
9.64603
9.65008
9.65313
9.65545
9.65743
9.65926
9.66059
9.66148
9.66206
9.66243
9.66261
9.66265
9.66267
9.66271
9.66272
4.75566
4.76498
4.78503
4.81934
4.87489
4.96574
5.12009
5.38804
5.8017
6.13185
6.43317
6.77215
7.0354
7.27337
7.53658
7.74448
7.93688
8.15046
8.30143
8.41235
8.51566
8.63073
8.72122
8.80226
8.88925
8.95656
9.01554
9.07742
9.12456
9.16475
9.20913
9.26452
9.30823
9.34725
9.38938
9.42217
9.45145
9.48303
9.50783
9.53034
9.55471
9.57181
9.58407
9.59491
9.60631
9.61502
9.62238
9.62976
9.63521
9.63959
9.6437
9.64662
9.64877
9.65064
9.65252
9.6538
9.6546
9.6551
9.6554
9.65553
9.65549
9.65547
9.65549
9.65549
4.62123
4.62914
4.64622
4.67568
4.72405
4.80537
4.95103
5.2286
5.71433
6.053
6.35421
6.72942
6.99119
7.2251
7.51218
7.71747
7.90766
8.14504
8.29464
8.39752
8.4964
8.62016
8.70844
8.78691
8.88031
8.94586
9.00271
9.06862
9.11394
9.15098
9.19436
9.25585
9.29922
9.33732
9.38282
9.4149
9.44332
9.47728
9.50154
9.52359
9.55038
9.56722
9.57852
9.58877
9.60084
9.60925
9.61628
9.62406
9.62932
9.63345
9.6377
9.64047
9.64241
9.64416
9.64612
9.64734
9.64806
9.64847
9.64871
9.64877
9.64864
9.64858
9.64859
9.64859
4.49204
4.4985
4.51249
4.53677
4.57714
4.64682
4.77869
5.0593
5.64268
5.98062
6.27272
6.69774
6.95116
7.17466
7.49546
7.69285
7.87591
8.14696
8.29193
8.38367
8.47596
8.61294
8.69701
8.77102
8.874
8.93634
8.98971
9.06187
9.10446
9.1373
9.17878
9.24903
9.29104
9.32722
9.37764
9.40825
9.43509
9.47256
9.4957
9.51675
9.54705
9.56328
9.5733
9.58275
9.5959
9.60385
9.61039
9.61882
9.62377
9.62757
9.63209
9.63466
9.63634
9.63793
9.64007
9.64121
9.64182
9.64214
9.64232
9.64233
9.64208
9.64199
9.64199
9.64198
4.36802
4.37301
4.38384
4.40274
4.4345
4.4906
4.6029
4.87502
5.5923
5.9148
6.18496
6.68013
6.91509
7.11922
7.4886
7.67038
7.83903
8.15812
8.29327
8.37038
8.45311
8.60993
8.68682
8.75368
8.87097
8.9279
8.97589
9.05761
9.09611
9.12359
9.16175
9.24459
9.28364
9.31651
9.37414
9.40217
9.42644
9.46911
9.49027
9.50952
9.54491
9.55997
9.56836
9.57671
9.59157
9.59878
9.60461
9.61406
9.61854
9.6219
9.62687
9.62916
9.63055
9.63194
9.63435
9.63539
9.63588
9.6361
9.63622
9.63618
9.63579
9.63568
9.63567
9.63567
4.24908
4.25261
4.26028
4.2737
4.29645
4.33742
4.42399
4.6687
5.57082
5.8554
6.08583
6.68088
6.88269
7.05503
7.49473
7.64977
7.7936
8.18122
8.29848
8.35728
8.42626
8.61247
8.67776
8.7337
8.87216
8.92043
8.96039
9.05645
9.08887
9.10975
9.14244
9.24331
9.27699
9.3046
9.3728
9.39661
9.41693
9.46727
9.48521
9.50151
9.54424
9.55725
9.56363
9.57051
9.58794
9.59403
9.59885
9.60985
9.61363
9.61636
9.62205
9.62397
9.62501
9.62615
9.62898
9.62986
9.63022
9.63032
9.6304
9.63033
9.62976
9.62965
9.62964
9.62963
4.13513
4.13722
4.14176
4.14973
4.16331
4.18811
4.24313
4.43076
5.58845
5.80195
5.96849
6.70591
6.85352
6.97713
7.51818
7.63076
7.73509
8.22003
8.30707
8.34414
8.39333
8.62236
8.66967
8.70948
8.87887
8.9138
8.94211
9.05928
9.08266
9.09578
9.11976
9.24623
9.271
9.2907
9.37426
9.39151
9.40597
9.46751
9.48047
9.49222
9.54544
9.55506
9.55907
9.56392
9.58517
9.58957
9.59295
9.60627
9.60899
9.61088
9.61768
9.61905
9.6197
9.6205
9.62396
9.6246
9.62482
9.6248
9.62484
9.62477
9.62397
9.62387
9.62386
9.62386
4.02605
4.02674
4.02824
4.03087
4.03536
4.04362
4.06268
4.14839
5.65869
5.75348
5.82401
6.76319
6.82699
6.87903
7.56483
7.61305
7.65761
8.27963
8.31811
8.33088
8.35167
8.6421
8.66237
8.679
8.89289
8.90783
8.9196
9.06728
9.07731
9.08182
9.09228
9.25478
9.26556
9.2738
9.3794
9.38679
9.39283
9.47048
9.47601
9.48099
9.54905
9.55329
9.55467
9.55669
9.58348
9.58535
9.58674
9.60344
9.6046
9.60537
9.61381
9.61439
9.61462
9.61495
9.61932
9.6196
9.61967
9.61952
9.61953
9.61949
9.61839
9.61834
9.61833
9.61833
)
;

boundaryField
{
    left
    {
        type            zeroGradient;
    }
    right
    {
        type            zeroGradient;
    }
    interface
    {
        type            fixedValue;
        value           nonuniform List<scalar> 
64
(
3.97271
3.97271
3.97271
3.97271
3.97271
3.97271
3.97271
3.97271
5.73043
5.73043
5.73043
6.81433
6.81433
6.81433
7.60448
7.60448
7.60448
8.32419
8.32419
8.32419
8.32419
8.65889
8.65889
8.65889
8.905
8.905
8.905
9.07483
9.07483
9.07483
9.07483
9.26297
9.26297
9.26297
9.38451
9.38451
9.38451
9.47384
9.47384
9.47384
9.5525
9.5525
9.5525
9.5525
9.58331
9.58331
9.58331
9.60247
9.60247
9.60247
9.61213
9.61213
9.61213
9.61213
9.61716
9.61716
9.61716
9.61694
9.61694
9.61694
9.61563
9.61563
9.61563
9.61563
)
;
    }
    bottom
    {
        type            fixedValue;
        value           uniform 10;
    }
    defaultFaces
    {
        type            empty;
    }
}


// ************************************************************************* //
