/*--------------------------------*- C++ -*----------------------------------*\
| =========                 |                                                 |
| \\      /  F ield         | OpenFOAM: The Open Source CFD Toolbox           |
|  \\    /   O peration     | Version:  5.x                                   |
|   \\  /    A nd           | Web:      www.OpenFOAM.org                      |
|    \\/     M anipulation  |                                                 |
\*---------------------------------------------------------------------------*/
FoamFile
{
    version     2.0;
    format      ascii;
    class       volScalarField;
    location    "8.3";
    object      gradTx;
}
// * * * * * * * * * * * * * * * * * * * * * * * * * * * * * * * * * * * * * //

dimensions      [0 -1 0 1 0 0 0];

internalField   nonuniform List<scalar> 
2048
(
0.0221799
0.0662929
0.109642
0.151651
0.191661
0.228944
0.262739
0.292319
0.317059
0.336511
0.350444
0.358864
0.362002
0.360276
0.354248
0.344568
0.33193
0.317029
0.300528
0.283034
0.265076
0.247097
0.229451
0.212406
0.196155
0.18082
0.166469
0.153125
0.140771
0.129362
0.118835
0.109114
0.100117
0.0917674
0.0839945
0.0767379
0.0699487
0.063589
0.0576309
0.0520547
0.0468473
0.0419995
0.0375044
0.0333556
0.0295454
0.0260639
0.0228991
0.0200361
0.0174583
0.0151475
0.0130844
0.0112493
0.00962242
0.00818404
0.00691503
0.0057968
0.00481143
0.00394168
0.00317094
0.00248309
0.00186244
0.00129362
0.000761567
0.000251428
0.0657739
0.196611
0.325241
0.449973
0.568856
0.679703
0.780214
0.868175
0.941687
0.999382
1.04057
1.06527
1.0742
1.06863
1.05027
1.02108
0.983145
0.938544
0.889264
0.837109
0.783653
0.73021
0.677821
0.627274
0.579127
0.533737
0.491296
0.451859
0.415373
0.3817
0.350643
0.321969
0.295437
0.270812
0.247883
0.226472
0.206432
0.187654
0.170057
0.153583
0.138196
0.12387
0.110587
0.0983283
0.0870723
0.0767904
0.0674463
0.0589964
0.0513909
0.0445753
0.0384926
0.033084
0.0282906
0.0240542
0.020318
0.017027
0.0141282
0.0115708
0.00930558
0.00728505
0.00546289
0.00379375
0.00223315
0.000737234
0.107999
0.322898
0.53436
0.739674
0.935633
1.11857
1.28455
1.42978
1.55096
1.64575
1.71297
1.75271
1.76621
1.75569
1.72405
1.67463
1.61092
1.53642
1.45443
1.36794
1.27954
1.1914
1.10519
1.02218
0.943266
0.86899
0.799644
0.735297
0.67584
0.621025
0.57051
0.523898
0.480774
0.440745
0.403459
0.36862
0.335994
0.305402
0.276717
0.249851
0.224748
0.201373
0.179699
0.159702
0.141348
0.12459
0.10937
0.0956148
0.0832424
0.0721624
0.0622801
0.0534987
0.0457213
0.0388522
0.0327982
0.0274695
0.0227795
0.0186452
0.0149868
0.0117269
0.00878986
0.00610197
0.00359114
0.00118555
0.149139
0.44604
0.738584
1.02318
1.29538
1.54996
1.78119
1.98344
2.15185
2.28292
2.37498
2.42823
2.44457
2.4273
2.38066
2.30946
2.21871
2.11333
1.99798
1.87686
1.75358
1.63107
1.51165
1.397
1.28827
1.18617
1.09105
1.00296
0.921705
0.84691
0.778065
0.714584
0.655867
0.601351
0.550539
0.503023
0.458484
0.416683
0.377456
0.340691
0.306322
0.274311
0.244632
0.217257
0.192146
0.169237
0.148447
0.129677
0.112808
0.0977153
0.0842664
0.0723267
0.0617618
0.0524394
0.0442313
0.0370136
0.030668
0.0250812
0.0201439
0.0157508
0.0117985
0.00818625
0.00481634
0.00159004
0.18935
0.566551
0.938907
1.30211
1.65054
1.97725
2.27444
2.5343
2.75006
2.91691
3.0326
3.09755
3.11452
3.08811
3.0241
2.92891
2.80916
2.67131
2.52142
2.36491
2.20638
2.04957
1.89732
1.75168
1.61399
1.48507
1.36527
1.25459
1.15273
1.05916
0.973151
0.893919
0.820649
0.752592
0.689104
0.629668
0.573886
0.521474
0.472234
0.426044
0.382839
0.342586
0.305269
0.270866
0.239331
0.210592
0.184541
0.161047
0.139958
0.121112
0.104337
0.0894624
0.0763153
0.0647282
0.0545381
0.045589
0.0377318
0.0308247
0.0247312
0.0193193
0.0144598
0.0100259
0.0058963
0.00194649
0.228669
0.684594
1.13576
1.5774
2.00274
2.40293
2.76771
3.08658
3.3504
3.55275
3.6908
3.76534
3.78027
3.74177
3.65743
3.53548
3.38426
3.21186
3.02581
2.83277
2.63839
2.44713
2.26231
2.08624
1.9204
1.76562
1.62223
1.49012
1.36887
1.25774
1.15579
1.06196
0.975211
0.894578
0.819269
0.748662
0.682297
0.619849
0.561105
0.505942
0.454304
0.406179
0.361571
0.320472
0.282839
0.248585
0.217579
0.189655
0.164626
0.142288
0.122433
0.10485
0.0893308
0.0756718
0.0636767
0.0531578
0.0439374
0.0358464
0.0287234
0.0224116
0.0167572
0.0116091
0.00682397
0.00225254
0.267018
0.799992
1.32905
1.84927
2.35282
2.82873
3.26369
3.64383
3.95699
4.1948
4.35381
4.43545
4.44516
4.3911
4.28296
4.13099
3.9454
3.73599
3.51182
3.28089
3.04986
2.8239
2.60671
2.40076
2.20756
2.02788
1.86197
1.70961
1.5702
1.44279
1.32615
1.21892
1.11978
1.02754
0.941258
0.860213
0.783897
0.711965
0.644199
0.580485
0.52079
0.465134
0.413558
0.366079
0.32266
0.283201
0.247543
0.215484
0.186793
0.161227
0.138536
0.118474
0.100794
0.0852574
0.0716351
0.0597091
0.0492742
0.0401366
0.0321116
0.0250198
0.0186846
0.0129314
0.00759664
0.00250726
0.304204
0.912238
1.51814
2.11732
2.70097
3.2557
3.76448
4.2091
4.5735
4.84689
5.02525
5.11105
5.11181
5.03819
4.90233
4.71672
4.49353
4.24435
3.97985
3.70945
3.44089
3.17995
2.93061
2.69537
2.47562
2.27202
2.08468
1.91324
1.75693
1.61453
1.4845
1.36511
1.25469
1.15181
1.05538
0.964601
0.878937
0.798041
0.721702
0.649827
0.582416
0.519541
0.461293
0.407729
0.358826
0.314467
0.274459
0.238555
0.20648
0.177947
0.152666
0.13035
0.110719
0.0934984
0.0784254
0.065253
0.0537502
0.0437011
0.0348999
0.0271469
0.0202438
0.0139941
0.00821505
0.00271089
0.339929
1.02052
1.70195
2.38051
3.04669
3.68433
4.27176
4.78512
5.2033
5.51249
5.70825
5.79471
5.7822
5.6845
5.51662
5.29345
5.02919
4.73725
4.43001
4.11847
3.81144
3.5153
3.23412
2.97024
2.72482
2.4983
2.29062
2.10129
1.92934
1.7733
1.63123
1.50094
1.38037
1.26781
1.16202
1.06216
0.967716
0.87834
0.793846
0.714166
0.639346
0.569524
0.504871
0.4455
0.391403
0.342443
0.298384
0.258926
0.223742
0.192499
0.164867
0.140521
0.119145
0.100429
0.0840785
0.0698161
0.0573877
0.0465577
0.0371025
0.0288036
0.0214429
0.0148029
0.00868264
0.00286459
0.373799
1.12372
1.87888
2.63721
3.38882
4.11452
4.78681
5.37444
5.84963
6.19485
6.40559
6.4885
6.45772
6.33093
6.12641
5.86157
5.55263
5.21477
4.86224
4.50776
4.16139
3.82994
3.51736
3.22562
2.95548
2.70706
2.48013
2.27407
2.08778
1.91949
1.76678
1.62691
1.49731
1.37599
1.26159
1.15328
1.05057
0.953157
0.860891
0.773729
0.691768
0.615235
0.544411
0.479489
0.420481
0.367217
0.319404
0.276679
0.238656
0.204956
0.175206
0.149048
0.126127
0.106101
0.0886399
0.0734379
0.0602197
0.0487335
0.0387408
0.0300068
0.0222948
0.0153669
0.0090049
0.00297018
0.405331
1.22047
2.04689
2.88516
3.72558
4.54564
5.31064
5.97958
6.51576
6.89712
7.1197
7.194
7.13921
6.97785
6.73185
6.42115
6.06386
5.67683
5.27629
4.87704
4.49052
4.12383
3.7805
3.46185
3.16801
2.89874
2.65363
2.432
2.23263
2.05351
1.89166
1.74357
1.60608
1.47689
1.35457
1.23834
1.12783
1.0228
0.923121
0.828768
0.739893
0.656839
0.580042
0.509808
0.446165
0.388895
0.337626
0.291918
0.251322
0.215408
0.183767
0.156004
0.131734
0.110577
0.0921665
0.0761678
0.0622873
0.0502618
0.0398416
0.0307778
0.0228158
0.0156978
0.00918894
0.00303006
0.433973
1.30917
2.20356
3.12154
4.05449
4.97653
5.84406
6.60315
7.20511
7.62237
7.85274
7.9123
7.82693
7.6251
7.33268
6.97202
6.5628
6.12327
5.67179
5.22586
4.79855
4.39698
4.0238
3.67935
3.36295
3.07388
2.81161
2.57549
2.36431
2.17584
2.00642
1.85154
1.70728
1.57105
1.44142
1.31776
1.19987
1.0876
0.980831
0.879551
0.783948
0.69451
0.611899
0.536574
0.468573
0.407597
0.353172
0.304764
0.261852
0.22396
0.190643
0.161476
0.136044
0.113929
0.0947232
0.0780619
0.0636372
0.0511804
0.0404354
0.0311408
0.0230246
0.0158092
0.00924304
0.00304701
0.459126
1.38805
2.34609
3.34294
4.3724
5.40543
6.38768
7.24805
7.92143
8.3737
8.60654
8.644
8.52059
8.27205
7.92835
7.51382
7.04929
6.55387
6.04829
5.55366
5.08515
4.6494
4.24757
3.87866
3.54092
3.23307
2.95461
2.70499
2.4832
2.28694
2.11167
1.95152
1.80159
1.65906
1.52262
1.39192
1.26702
1.14787
1.03432
0.926362
0.824174
0.728427
0.640113
0.559908
0.487833
0.423458
0.36618
0.31535
0.270371
0.230724
0.195935
0.165554
0.13914
0.116235
0.0963814
0.0791814
0.0643193
0.0515295
0.0405543
0.0311216
0.0229416
0.015716
0.00917637
0.00302412
0.48017
1.45524
2.4714
3.54545
4.6754
5.82994
6.94199
7.91762
8.66895
9.15422
9.38263
9.3892
9.2193
8.91762
8.518
8.04607
7.52324
6.96851
6.40523
5.85974
5.34996
4.8812
4.45225
4.06045
3.70265
3.37698
3.08319
2.82096
2.58968
2.38724
2.20805
2.04423
1.88967
1.7415
1.59866
1.4612
1.32962
1.20392
1.0839
0.969496
0.860824
0.758761
0.664803
0.579925
0.504075
0.43662
0.376797
0.323822
0.277011
0.23582
0.19975
0.168333
0.141109
0.117577
0.0972167
0.0795908
0.0643853
0.0513502
0.0402318
0.0307472
0.022588
0.0154339
0.00899873
0.00296476
0.496496
1.50886
2.57627
3.72464
4.95878
6.24687
7.50735
8.61591
9.45258
9.96703
10.1821
10.1474
9.92154
9.56029
9.10056
8.5682
7.98472
7.36722
6.74196
6.1432
5.59257
5.09256
4.63837
4.2255
3.84899
3.50636
3.19798
2.92386
2.68405
2.47715
2.29623
2.1305
1.97226
1.81896
1.66998
1.52594
1.38796
1.25605
1.12986
1.00927
0.894164
0.785677
0.686069
0.596735
0.517439
0.447236
0.385181
0.33033
0.281909
0.23937
0.202197
0.169906
0.142037
0.11804
0.0973084
0.0793561
0.0638868
0.050683
0.0395006
0.0300446
0.0219855
0.0149792
0.00872046
0.00287245
0.507542
1.54711
2.6574
3.87572
5.21701
6.6521
8.08389
9.34797
10.2781
10.8151
11.0058
10.9177
10.6251
10.1981
9.67481
9.07958
8.43406
7.75034
7.05769
6.40288
5.81261
5.28385
4.80658
4.37472
3.98093
3.62199
3.29966
3.01416
2.7665
2.55699
2.37698
2.21123
2.05007
1.89202
1.73702
1.58642
1.44232
1.30456
1.17249
1.046
0.924486
0.80932
0.703978
0.610439
0.528072
0.455463
0.391498
0.335036
0.285203
0.241496
0.203384
0.170366
0.142009
0.117712
0.0967387
0.0785442
0.0628742
0.0495668
0.038393
0.0290405
0.0211558
0.0143686
0.00835226
0.0027509
0.512833
1.56838
2.71163
3.99359
5.44367
7.04033
8.67149
10.1202
11.1526
11.7009
11.8536
11.6986
11.3269
10.8289
10.2395
9.57948
8.872
8.11864
7.35144
6.63726
6.00972
5.45565
4.95761
4.5092
4.09957
3.72464
3.38893
3.09232
2.83711
2.62695
2.45111
2.28743
2.12382
1.96122
1.80019
1.64284
1.49294
1.34971
1.21206
1.08006
0.952113
0.829808
0.718555
0.621132
0.536131
0.461463
0.395918
0.338104
0.28703
0.242322
0.203417
0.169798
0.141106
0.116679
0.095593
0.0772217
0.0613946
0.0480379
0.0369398
0.0277612
0.0201205
0.0136191
0.00790514
0.00260393
0.512011
1.57137
2.73605
4.07308
5.63142
7.40476
9.26946
10.941
12.0846
12.6263
12.7253
12.4882
12.0229
11.4503
10.7935
10.0669
9.29987
8.47357
7.62185
6.84425
6.18369
5.60884
5.09223
4.63012
4.20615
3.81504
3.46657
3.15887
2.89572
2.68707
2.51959
2.36029
2.19414
2.02709
1.85987
1.69533
1.54003
1.39179
1.24878
1.11183
0.977419
0.847218
0.729762
0.628903
0.541798
0.465399
0.398618
0.339707
0.28752
0.241964
0.202405
0.168281
0.139399
0.11503
0.0939605
0.0754535
0.0594908
0.046129
0.0351706
0.0262319
0.0189004
0.0127476
0.00739044
0.00243548
0.504869
1.55518
2.72824
4.10907
5.77207
7.73674
9.8762
11.8214
13.0846
13.5912
13.6195
13.2845
12.7079
12.0596
11.3358
10.5403
9.71974
8.81757
7.86704
7.02102
6.33455
5.74481
5.21111
4.73886
4.30214
3.89379
3.53345
3.21446
2.94192
2.73713
2.5836
2.43121
2.26154
2.09012
1.91645
1.74386
1.58378
1.43109
1.2828
1.14176
1.00086
0.861566
0.737482
0.63385
0.545284
0.467426
0.399779
0.340025
0.286792
0.240539
0.200455
0.165883
0.13695
0.112857
0.0919359
0.0733021
0.0571995
0.0438688
0.0331133
0.0244771
0.0175159
0.0117713
0.00681973
0.0022496
0.491374
1.51937
2.68641
4.09684
5.85668
8.0253
10.4885
12.776
14.1661
14.593
14.5348
14.086
13.3749
12.6548
11.8662
10.9972
10.1347
9.15453
8.08422
7.16368
6.46283
5.86557
5.31464
4.83697
4.38924
3.96115
3.59057
3.25994
2.9749
2.77651
2.64463
2.50189
2.32629
2.15077
1.97038
1.7882
1.6244
1.46795
1.31414
1.17036
1.02302
0.872774
0.741485
0.636092
0.54685
0.467678
0.399586
0.339253
0.284942
0.238157
0.19768
0.162659
0.133809
0.110255
0.0896214
0.0708258
0.0545496
0.0412813
0.0307955
0.0225203
0.0159861
0.0107073
0.00620488
0.0020504
0.471677
1.46409
2.60961
4.03232
5.87578
8.2567
11.1006
13.8247
15.3458
15.6244
15.469
14.8921
14.0139
13.2344
12.3857
11.4331
10.5494
9.49038
8.26926
7.26689
6.56982
5.97404
5.40255
4.92626
4.46956
4.01687
3.63914
3.29654
2.99333
2.80412
2.70464
2.57444
2.38821
2.2095
2.02223
1.82783
1.66214
1.50279
1.3426
1.19825
1.04464
0.880629
0.7414
0.635797
0.546827
0.466245
0.39823
0.337605
0.282036
0.234927
0.194203
0.158642
0.130005
0.107324
0.0871301
0.0680764
0.0515602
0.0383859
0.0282447
0.0203841
0.0143288
0.00957306
0.00555812
0.00184206
0.446111
1.39004
2.49782
3.91246
5.81971
8.41398
11.7025
14.9937
16.6457
16.6707
16.4207
15.7046
14.6114
13.7982
12.8967
11.8405
10.9702
9.83395
8.41597
7.32337
6.65814
6.07441
5.47346
5.00894
4.54582
4.05979
3.68074
3.32609
2.9952
2.81812
2.76628
2.65157
2.44637
2.26686
2.0728
1.86176
1.69735
1.53624
1.36762
1.22621
1.06677
0.884717
0.736672
0.633217
0.545647
0.46314
0.395913
0.335333
0.278089
0.230955
0.190164
0.153844
0.125543
0.104178
0.0845898
0.0650958
0.0482388
0.0351974
0.0254901
0.0180901
0.0125595
0.00838642
0.00489206
0.0016288
0.415184
1.2985
2.35212
3.73556
5.67922
8.47659
12.2778
16.319
18.0945
17.7061
17.3897
16.5292
15.1474
14.3484
13.405
12.2065
11.4061
10.1981
8.51511
7.32334
6.73229
6.17257
5.52402
5.08784
4.62163
4.08731
3.71744
3.35134
2.97754
2.81568
2.83316
2.73677
2.49875
2.32354
2.12331
1.88832
1.73062
1.56917
1.38812
1.25522
1.09079
0.884329
0.726515
0.628744
0.543882
0.45824
0.392858
0.332739
0.273038
0.226357
0.185737
0.148243
0.1204
0.100945
0.0821485
0.0619117
0.0445798
0.0317263
0.0225642
0.0156585
0.0106914
0.00716609
0.0042198
0.00141487
0.379547
1.19125
2.17465
3.50164
5.44616
8.42041
12.8001
17.8482
19.7302
18.6878
18.3791
17.378
15.5926
14.8913
13.9205
12.5105
11.8702
10.6013
8.55312
7.25386
6.79957
6.27671
5.54781
5.16675
4.70201
4.09461
3.7521
3.37638
2.93614
2.79261
2.91029
2.83462
2.54158
2.38065
2.17563
1.90478
1.76286
1.60294
1.40215
1.28662
1.11862
0.878336
0.709862
0.622977
0.542286
0.451213
0.38933
0.330212
0.266703
0.221259
0.181142
0.141772
0.114512
0.0977769
0.0799804
0.0585306
0.0405624
0.0279799
0.0195054
0.0131077
0.00873352
0.00593224
0.00355504
0.00120454
0.339967
1.07053
1.9686
3.21267
5.1144
8.21809
13.229
19.6453
21.6035
19.549
19.3986
18.2727
15.9037
15.439
14.46
12.7197
12.3804
11.0692
8.51029
7.09807
6.87116
6.39808
5.53379
5.25106
4.79396
4.07358
3.78875
3.40715
2.86519
2.74293
3.0045
2.95118
2.56857
2.43992
2.23262
1.90689
1.79559
1.63955
1.40656
1.32219
1.15287
0.865015
0.685313
0.616808
0.541859
0.441408
0.385664
0.328261
0.258736
0.215821
0.17667
0.134303
0.107768
0.0948597
0.0782931
0.0549287
0.036151
0.0239628
0.0163609
0.0104532
0.00669029
0.00470749
0.00291205
0.00100204
0.29728
0.938878
1.73809
2.87276
4.68093
7.84024
13.5031
21.7948
23.7828
20.1885
20.4678
19.2484
16.017
16.0124
15.0495
12.7844
12.9622
11.6374
8.35846
6.8345
6.96342
6.55197
5.46414
5.34854
4.90735
4.01137
3.83316
3.45208
2.75676
2.65831
3.12503
3.09448
2.56983
2.5042
2.29857
1.88818
1.83122
1.68201
1.39641
1.36442
1.1971
0.841822
0.651086
0.611534
0.543919
0.427711
0.38232
0.327569
0.248546
0.210258
0.172705
0.12563
0.100002
0.0924237
0.0773367
0.0510406
0.031295
0.0196776
0.0131904
0.00770629
0.00455957
0.00351826
0.00230557
0.000811439
0.252353
0.799041
1.488
2.48818
4.14695
7.25756
13.5329
24.4077
26.3604
20.4575
21.6227
20.3593
15.8402
16.6454
15.7283
12.6303
13.6515
12.3534
8.0581
6.43632
7.09942
6.75894
5.31159
5.47054
5.05599
3.88841
3.89357
3.52283
2.60031
2.52742
3.28425
3.2752
2.53046
2.57805
2.37975
1.83905
1.87345
1.73467
1.36428
1.41676
1.25601
0.805097
0.60499
0.608974
0.550187
0.408353
0.379949
0.329054
0.235201
0.204872
0.169756
0.115441
0.0909802
0.0907582
0.0774131
0.046743
0.0259327
0.0151263
0.0100703
0.00487208
0.00233109
0.00239664
0.00175033
0.000636478
0.206044
0.65381
1.22367
2.06719
3.51893
6.44451
13.1895
27.6276
29.4604
20.1432
22.9234
21.6849
15.2405
17.3901
16.5537
12.1499
14.4981
13.2805
7.55473
5.87082
7.31061
7.04634
5.03584
5.63358
5.259
3.67602
3.98172
3.6351
2.382
2.33518
3.49843
3.5075
2.42874
2.66854
2.48506
1.74556
1.92783
1.80375
1.29937
1.48406
1.3358
0.749701
0.544409
0.6116
0.562895
0.380671
0.379499
0.333947
0.217304
0.200109
0.168489
0.103284
0.0803926
0.0902266
0.0788869
0.0418359
0.0199961
0.010309
0.00709855
0.00194645
-1.55108e-05
0.0013827
0.00126014
0.00048019
0.15916
0.505899
0.950655
1.61964
2.80942
5.38463
12.2924
31.6387
33.2492
18.9484
24.4644
23.3374
14.0318
18.3229
17.6068
11.1914
15.5713
14.5003
6.77454
5.09912
7.63854
7.45027
4.57933
5.86137
5.54248
3.33328
4.11425
3.80947
2.08406
2.06189
3.78858
3.81006
2.23399
2.78637
2.62687
1.58802
2.00248
1.89793
1.18635
1.57303
1.44448
0.668574
0.466331
0.622681
0.584921
0.340815
0.382349
0.343884
0.192837
0.196619
0.16976
0.0885306
0.0678483
0.0912837
0.0821971
0.0360185
0.0134208
0.00522379
0.00440074
-0.00108743
-0.00251281
0.000527516
0.000846309
0.000344403
0.112436
0.35783
0.674416
1.15647
2.03726
4.07821
10.5935
36.6734
37.948
16.466
26.387
25.4706
11.9566
19.5534
18.9991
9.54486
16.9662
16.1166
5.61944
4.07621
8.13655
8.01791
3.862
6.18743
5.94137
2.80337
4.31438
4.07227
1.68399
1.68231
4.18132
4.2074
1.90387
2.94718
2.82194
1.33912
2.10895
2.02903
1.00403
1.69293
1.59217
0.552213
0.367422
0.6464
0.619934
0.283391
0.390482
0.360997
0.158974
0.195353
0.174651
0.0703292
0.0528697
0.0944934
0.0878701
0.028861
0.00615963
-0.000137431
0.00213654
-0.00426358
-0.00520778
-0.000103316
0.000515154
0.000229031
0.0665087
0.211834
0.400023
0.688899
1.22715
2.55231
7.7594
43.0215
43.8481
12.1509
28.8956
28.2893
8.6671
21.2341
20.8808
6.92708
18.8113
18.2587
3.9613
2.75161
8.87114
8.81031
2.77536
6.65821
6.50159
2.00923
4.61414
4.45625
1.15388
1.16473
4.70976
4.73138
1.38127
3.17319
3.0924
0.961834
2.2633
2.21283
0.723729
1.85641
1.79147
0.388074
0.244167
0.687966
0.672587
0.201054
0.406702
0.388029
0.111854
0.197671
0.184499
0.0475541
0.0348932
0.100545
0.0965336
0.0197713
-0.00179805
-0.005794
0.000507443
-0.00763863
-0.0081639
-0.000425568
0.000264485
0.000131243
0.021907
0.0698033
0.131936
0.227685
0.407973
0.873685
3.35013
51.0386
51.329
5.28578
32.2754
32.0597
3.70169
23.5716
23.4491
2.96308
21.2788
21.0842
1.63578
1.07059
9.92299
9.9058
1.17555
7.33676
7.28243
0.848583
5.05699
5.00122
0.459647
0.46999
5.41429
5.42307
0.590831
3.4952
3.46691
0.407033
2.48733
2.46992
0.307473
2.08045
2.05772
0.159915
0.0930781
0.753673
0.748728
0.084037
0.434894
0.428439
0.0463319
0.205485
0.200914
0.0187495
0.0132753
0.110271
0.108931
0.00795802
-0.0104015
-0.0117856
-0.000234581
-0.0112981
-0.0114632
-0.000331741
7.89993e-05
4.45698e-05
)
;

boundaryField
{
    left
    {
        type            calculated;
        value           uniform 0;
    }
    right
    {
        type            calculated;
        value           uniform 0;
    }
    interface
    {
        type            calculated;
        value           nonuniform List<scalar> 
64
(
0.021907
0.0698033
0.131936
0.227685
0.407973
0.873685
3.35013
51.0386
51.329
5.28578
32.2754
32.0597
3.70169
23.5716
23.4491
2.96308
21.2788
21.0842
1.63578
1.07059
9.92299
9.9058
1.17555
7.33676
7.28243
0.848583
5.05699
5.00122
0.459647
0.46999
5.41429
5.42307
0.590831
3.4952
3.46691
0.407033
2.48733
2.46992
0.307473
2.08045
2.05772
0.159915
0.0930781
0.753673
0.748728
0.084037
0.434894
0.428439
0.0463319
0.205485
0.200914
0.0187495
0.0132753
0.110271
0.108931
0.00795802
-0.0104015
-0.0117856
-0.000234581
-0.0112981
-0.0114632
-0.000331741
7.89993e-05
4.45698e-05
)
;
    }
    bottom
    {
        type            calculated;
        value           nonuniform List<scalar> 
64
(
0.0221799
0.0662929
0.109642
0.151651
0.191661
0.228944
0.262739
0.292319
0.317059
0.336511
0.350444
0.358864
0.362002
0.360276
0.354248
0.344568
0.33193
0.317029
0.300528
0.283034
0.265076
0.247097
0.229451
0.212406
0.196155
0.18082
0.166469
0.153125
0.140771
0.129362
0.118835
0.109114
0.100117
0.0917674
0.0839945
0.0767379
0.0699487
0.063589
0.0576309
0.0520547
0.0468473
0.0419995
0.0375044
0.0333556
0.0295454
0.0260639
0.0228991
0.0200361
0.0174583
0.0151475
0.0130844
0.0112493
0.00962242
0.00818404
0.00691503
0.0057968
0.00481143
0.00394168
0.00317094
0.00248309
0.00186244
0.00129362
0.000761567
0.000251428
)
;
    }
    defaultFaces
    {
        type            empty;
    }
}


// ************************************************************************* //
