/*--------------------------------*- C++ -*----------------------------------*\
| =========                 |                                                 |
| \\      /  F ield         | OpenFOAM: The Open Source CFD Toolbox           |
|  \\    /   O peration     | Version:  5.x                                   |
|   \\  /    A nd           | Web:      www.OpenFOAM.org                      |
|    \\/     M anipulation  |                                                 |
\*---------------------------------------------------------------------------*/
FoamFile
{
    version     2.0;
    format      ascii;
    class       volScalarField;
    location    "10.6";
    object      gradTy;
}
// * * * * * * * * * * * * * * * * * * * * * * * * * * * * * * * * * * * * * //

dimensions      [0 -1 0 1 0 0 0];

internalField   nonuniform List<scalar> 
2048
(
-20.1547
-20.0579
-19.8652
-19.5789
-19.2026
-18.7413
-18.2018
-17.5925
-16.9234
-16.2057
-15.4515
-14.673
-13.882
-13.0899
-12.3067
-11.5411
-10.8003
-10.09
-9.41439
-8.77609
-8.17665
-7.61647
-7.09511
-6.61144
-6.16385
-5.75037
-5.36887
-5.0171
-4.69283
-4.39393
-4.11836
-3.86427
-3.63001
-3.41409
-3.21522
-3.03226
-2.86418
-2.71008
-2.56911
-2.44049
-2.32349
-2.21739
-2.12147
-2.03505
-1.95744
-1.88798
-1.82602
-1.77095
-1.72216
-1.6791
-1.64124
-1.60811
-1.57924
-1.55423
-1.53269
-1.51429
-1.49871
-1.48568
-1.47497
-1.46637
-1.45969
-1.45481
-1.45161
-1.45003
-20.2331
-20.1354
-19.9409
-19.6518
-19.2713
-18.8046
-18.2582
-17.6408
-16.9627
-16.2353
-15.4712
-14.683
-13.883
-13.0827
-12.2924
-11.521
-10.7757
-10.062
-9.38416
-8.74466
-8.14488
-7.58507
-7.06462
-6.58226
-6.13624
-5.7245
-5.3448
-4.99484
-4.67232
-4.37504
-4.10097
-3.84823
-3.61516
-3.40029
-3.20235
-3.02021
-2.85287
-2.69944
-2.5591
-2.43109
-2.31467
-2.20913
-2.11378
-2.0279
-1.95083
-1.8819
-1.82044
-1.76584
-1.7175
-1.67487
-1.63741
-1.60464
-1.5761
-1.55139
-1.53013
-1.51198
-1.49662
-1.48379
-1.47324
-1.46478
-1.45822
-1.45342
-1.45028
-1.44873
-20.382
-20.2827
-20.085
-19.7905
-19.4024
-18.9253
-18.3659
-17.7331
-17.0375
-16.2914
-15.5083
-14.7015
-13.8841
-13.0683
-12.2646
-11.4821
-10.7281
-10.0082
-9.32622
-8.68456
-8.08426
-7.52525
-7.00663
-6.52684
-6.08388
-5.6755
-5.29928
-4.95277
-4.63357
-4.33941
-4.06818
-3.81798
-3.58716
-3.37427
-3.17807
-2.99746
-2.83151
-2.67934
-2.54019
-2.41331
-2.29798
-2.19352
-2.09922
-2.01439
-1.93835
-1.8704
-1.80989
-1.7562
-1.70872
-1.66688
-1.63017
-1.59809
-1.57018
-1.54605
-1.52531
-1.50762
-1.49268
-1.48022
-1.46999
-1.46179
-1.45544
-1.45081
-1.44778
-1.44628
-20.5931
-20.4918
-20.2897
-19.988
-19.5893
-19.0977
-18.5198
-17.8647
-17.1439
-16.3708
-15.5601
-14.7265
-13.8842
-13.0461
-12.2233
-11.4252
-10.6591
-9.93048
-9.24294
-8.59848
-7.99771
-7.44011
-6.9243
-6.44834
-6.00988
-5.60638
-5.23517
-4.89363
-4.57919
-4.28945
-4.02224
-3.77564
-3.54797
-3.33783
-3.14404
-2.96557
-2.80152
-2.65111
-2.5136
-2.38829
-2.2745
-2.17154
-2.07874
-1.99538
-1.92078
-1.85424
-1.79508
-1.74267
-1.69639
-1.65568
-1.62002
-1.58891
-1.5619
-1.53857
-1.51857
-1.50154
-1.48718
-1.47523
-1.46545
-1.45763
-1.45158
-1.44718
-1.4443
-1.44288
-20.859
-20.7555
-20.5484
-20.2383
-19.8267
-19.3171
-18.7157
-18.0321
-17.2787
-16.4706
-15.6242
-14.756
-13.8817
-13.0151
-12.1682
-11.3505
-10.5695
-9.83021
-9.13607
-8.48854
-7.88765
-7.33224
-6.82036
-6.34954
-5.917
-5.51982
-5.15509
-4.8199
-4.51153
-4.22741
-3.96527
-3.72314
-3.49938
-3.29263
-3.10179
-2.92592
-2.76421
-2.61594
-2.48044
-2.35706
-2.24516
-2.14409
-2.05315
-1.97165
-1.89887
-1.83409
-1.77663
-1.72582
-1.68106
-1.64177
-1.60741
-1.57751
-1.55161
-1.5293
-1.51021
-1.494
-1.48038
-1.46907
-1.45985
-1.45249
-1.44683
-1.44271
-1.44003
-1.43871
-21.1733
-21.0675
-20.8554
-20.5363
-20.1104
-19.5799
-18.9507
-18.2325
-17.4392
-16.5881
-15.6981
-14.7878
-13.8748
-12.9743
-12.0987
-11.258
-10.4596
-9.70826
-9.00694
-8.35646
-7.75609
-7.20391
-6.69722
-6.23291
-5.8077
-5.41828
-5.06139
-4.73388
-4.43277
-4.15534
-3.89918
-3.66229
-3.44304
-3.24018
-3.05271
-2.87979
-2.72073
-2.5749
-2.4417
-2.32055
-2.21084
-2.11196
-2.02322
-1.9439
-1.87327
-1.81058
-1.75511
-1.7062
-1.66321
-1.62558
-1.59277
-1.56428
-1.53968
-1.51855
-1.50052
-1.48527
-1.4725
-1.46195
-1.45338
-1.44658
-1.44137
-1.43759
-1.43514
-1.43393
-21.5297
-21.4222
-21.2057
-20.8778
-20.4369
-19.8835
-19.2224
-18.4637
-17.6233
-16.7212
-15.7794
-14.8197
-13.8617
-12.922
-12.0139
-11.1473
-10.3296
-9.56525
-8.85658
-8.20366
-7.60481
-7.05713
-6.55703
-6.10068
-5.68423
-5.30395
-4.95623
-4.63763
-4.34491
-4.07514
-3.82577
-3.59474
-3.38049
-3.18188
-2.99805
-2.82834
-2.67215
-2.52897
-2.39827
-2.27956
-2.17228
-2.07585
-1.98959
-1.91276
-1.84457
-1.78425
-1.73105
-1.68428
-1.6433
-1.60753
-1.57645
-1.54956
-1.52641
-1.50661
-1.48977
-1.47559
-1.46378
-1.45407
-1.44623
-1.44006
-1.43536
-1.43197
-1.42977
-1.42871
-21.9226
-21.8141
-21.5944
-21.259
-20.8035
-20.2258
-19.5293
-18.7244
-17.8292
-16.8676
-15.866
-14.8495
-13.8405
-12.8569
-11.9127
-11.0179
-10.1795
-9.40161
-8.68587
-8.03142
-7.43541
-6.89375
-6.40181
-5.95493
-5.54867
-5.17885
-4.84156
-4.53304
-4.24978
-3.98857
-3.74668
-3.52201
-3.31309
-3.11895
-2.93894
-2.77257
-2.61939
-2.47899
-2.35094
-2.23482
-2.13015
-2.03638
-1.95285
-1.87877
-1.81331
-1.75562
-1.70492
-1.66049
-1.62171
-1.58799
-1.55879
-1.53364
-1.51209
-1.49372
-1.47819
-1.46517
-1.4544
-1.44561
-1.43858
-1.43309
-1.42895
-1.42599
-1.42409
-1.42317
-22.3464
-22.2381
-22.0173
-21.6767
-21.208
-20.6057
-19.8707
-19.0135
-18.0554
-17.0254
-15.9553
-14.8747
-13.8089
-12.7773
-11.7941
-10.8692
-10.0092
-9.21769
-8.49555
-7.84087
-7.24939
-6.71553
-6.23344
-5.79758
-5.40289
-5.04483
-4.71916
-4.42184
-4.14904
-3.89721
-3.66341
-3.44547
-3.24208
-3.05251
-2.87638
-2.71339
-2.56328
-2.42572
-2.30039
-2.18695
-2.08502
-1.99411
-1.91353
-1.84246
-1.77996
-1.72513
-1.67713
-1.63524
-1.59882
-1.56728
-1.54011
-1.51682
-1.49696
-1.48013
-1.46598
-1.4542
-1.44452
-1.43672
-1.43055
-1.4258
-1.42227
-1.41979
-1.4182
-1.41744
-22.7955
-22.6891
-22.4702
-22.1278
-21.6488
-21.0226
-20.2464
-19.3307
-18.3008
-17.1926
-16.0449
-14.8929
-13.7649
-12.6816
-11.6572
-10.7009
-9.81874
-9.0138
-8.2863
-7.63312
-7.0482
-6.52416
-6.05374
-5.63043
-5.24866
-4.90355
-4.59063
-4.30557
-4.04419
-3.80254
-3.57734
-3.36638
-3.16857
-2.98353
-2.81121
-2.65159
-2.50452
-2.36981
-2.24723
-2.13652
-2.03741
-1.94949
-1.87208
-1.80425
-1.74495
-1.69319
-1.64808
-1.60887
-1.57493
-1.54569
-1.52065
-1.49932
-1.48125
-1.46604
-1.45332
-1.44283
-1.43431
-1.42753
-1.42228
-1.41832
-1.41545
-1.41347
-1.41222
-1.41164
-23.2643
-23.162
-22.9489
-22.6097
-22.1248
-21.4766
-20.6572
-19.6762
-18.5643
-17.3671
-16.1323
-14.9015
-13.7065
-12.5685
-11.501
-10.5126
-9.60809
-8.79022
-8.05875
-7.40922
-6.83331
-6.32133
-5.86445
-5.45523
-5.0876
-4.75653
-4.45739
-4.18561
-3.93661
-3.70591
-3.48975
-3.28586
-3.09352
-2.91285
-2.74419
-2.58782
-2.44376
-2.31186
-2.19198
-2.08399
-1.98773
-1.90292
-1.82889
-1.76454
-1.70868
-1.66017
-1.6181
-1.58169
-1.55033
-1.52348
-1.50065
-1.48137
-1.46516
-1.45161
-1.44038
-1.4312
-1.42387
-1.41817
-1.41387
-1.41075
-1.40856
-1.40713
-1.40624
-1.40586
-23.7474
-23.6518
-23.4494
-23.1197
-22.6351
-21.9686
-21.1045
-20.0507
-18.8451
-17.5467
-16.2147
-14.8978
-13.6313
-12.4365
-11.3251
-10.3041
-9.37741
-8.54724
-7.81347
-7.17024
-6.60618
-6.10872
-5.66731
-5.27361
-4.9212
-4.60512
-4.32072
-4.06318
-3.82752
-3.60856
-3.40182
-3.20494
-3.0178
-2.84118
-2.67594
-2.52268
-2.38153
-2.25237
-2.13513
-2.02978
-1.93634
-1.85474
-1.78429
-1.72369
-1.67148
-1.62642
-1.5875
-1.55397
-1.52526
-1.50087
-1.48032
-1.46314
-1.44886
-1.43702
-1.42729
-1.41945
-1.41332
-1.40872
-1.40541
-1.40317
-1.40171
-1.40086
-1.40034
-1.40017
-24.2389
-24.1532
-23.9675
-23.6553
-23.1792
-22.5001
-21.5907
-20.4556
-19.1424
-17.7288
-16.2888
-14.8787
-13.5373
-12.2846
-11.129
-10.0756
-9.12702
-8.28511
-7.55096
-6.91724
-6.3684
-5.88806
-5.46401
-5.08714
-4.75082
-4.45053
-4.18171
-3.93932
-3.71802
-3.51167
-3.31466
-3.12453
-2.94212
-2.76912
-2.60695
-2.45662
-2.31831
-2.19179
-2.07708
-1.97424
-1.88354
-1.80521
-1.73859
-1.68202
-1.6337
-1.59222
-1.55656
-1.52596
-1.49994
-1.47804
-1.45982
-1.4448
-1.43249
-1.42239
-1.41417
-1.40766
-1.40275
-1.39926
-1.39698
-1.39565
-1.39497
-1.39472
-1.3946
-1.39465
-24.7334
-24.6609
-24.4988
-24.2138
-23.7569
-23.0732
-22.1193
-20.8931
-19.4551
-17.9105
-16.3513
-14.8412
-13.4225
-12.1119
-10.9125
-9.8276
-8.85743
-8.00401
-7.27156
-6.65131
-6.12162
-5.66111
-5.25625
-4.89735
-4.57769
-4.29379
-4.0413
-3.81489
-3.60907
-3.41634
-3.22935
-3.04543
-2.86707
-2.69715
-2.53763
-2.39006
-2.25451
-2.13051
-2.0182
-1.9177
-1.82954
-1.75453
-1.69204
-1.63983
-1.59561
-1.55786
-1.52553
-1.49787
-1.47455
-1.45516
-1.43929
-1.42648
-1.4162
-1.40786
-1.40112
-1.39592
-1.39221
-1.38986
-1.38863
-1.38826
-1.38838
-1.38878
-1.38907
-1.38936
-25.2251
-25.1697
-25.0388
-24.7922
-24.3679
-23.691
-22.695
-21.366
-19.7817
-18.0881
-16.3985
-14.7818
-13.2848
-11.9181
-10.6759
-9.56076
-8.56947
-7.70398
-6.97541
-6.37361
-5.86774
-5.42967
-5.04567
-4.70568
-4.40288
-4.13578
-3.90027
-3.69057
-3.50148
-3.32367
-3.14694
-2.96834
-2.79311
-2.62562
-2.46824
-2.32328
-2.19051
-2.06887
-1.95882
-1.86044
-1.77449
-1.70283
-1.64486
-1.59741
-1.55751
-1.52359
-1.49463
-1.46987
-1.44923
-1.43237
-1.41885
-1.40829
-1.40011
-1.39354
-1.38823
-1.38428
-1.38177
-1.38057
-1.38041
-1.38105
-1.382
-1.38309
-1.3838
-1.38433
-25.7085
-25.6741
-25.5827
-25.3873
-25.012
-24.3569
-23.324
-21.8785
-20.1199
-18.257
-16.4266
-14.6967
-13.1225
-11.7032
-10.4197
-9.27631
-8.26437
-7.38475
-6.66228
-6.08537
-5.60889
-5.19553
-4.83387
-4.51358
-4.22726
-3.97719
-3.7593
-3.56682
-3.39592
-3.23476
-3.06856
-2.89381
-2.72055
-2.55483
-2.39894
-2.25655
-2.12666
-2.00719
-1.89928
-1.80273
-1.71847
-1.65015
-1.59723
-1.55506
-1.51964
-1.48965
-1.46407
-1.44212
-1.42411
-1.40977
-1.39858
-1.39033
-1.38432
-1.37952
-1.37557
-1.37281
-1.37146
-1.37141
-1.37236
-1.37404
-1.37588
-1.37768
-1.37883
-1.37961
-26.1783
-26.1688
-26.1254
-25.9954
-25.6882
-25.0752
-24.0144
-22.4359
-20.466
-18.4118
-16.4318
-14.5819
-12.9339
-11.4685
-10.1445
-8.97587
-7.944
-7.04558
-6.33145
-5.78801
-5.34766
-4.96044
-4.62237
-4.3225
-4.05148
-3.81858
-3.61899
-3.44381
-3.29286
-3.1508
-2.99541
-2.8222
-2.64953
-2.485
-2.32976
-2.19002
-2.06334
-1.9457
-1.83988
-1.74489
-1.66145
-1.59645
-1.54936
-1.51308
-1.48223
-1.45623
-1.43404
-1.41472
-1.39929
-1.38747
-1.37856
-1.37266
-1.36894
-1.36593
-1.36319
-1.36151
-1.36131
-1.36242
-1.36449
-1.36727
-1.37004
-1.37259
-1.3742
-1.37523
-26.6297
-26.6487
-26.6616
-26.6119
-26.3954
-25.8503
-24.7765
-23.046
-20.8138
-18.5452
-16.4111
-14.4324
-12.7175
-11.216
-9.85063
-8.66152
-7.61121
-6.6849
-5.98142
-5.48326
-5.08729
-4.72588
-4.41254
-4.13404
-3.87586
-3.66031
-3.47997
-3.32139
-3.19255
-3.0731
-2.92895
-2.75361
-2.58002
-2.41638
-2.26054
-2.12382
-2.00099
-1.88455
-1.78092
-1.68728
-1.60327
-1.54157
-1.50143
-1.47186
-1.44549
-1.42351
-1.40475
-1.38774
-1.37483
-1.36556
-1.3588
-1.35533
-1.35407
-1.35287
-1.35112
-1.35041
-1.35134
-1.3536
-1.35683
-1.36076
-1.36452
-1.36786
-1.36992
-1.37119
-27.058
-27.1087
-27.1859
-27.2317
-27.1311
-26.6869
-25.6235
-23.7198
-21.1531
-18.6488
-16.3633
-14.242
-12.4721
-10.9499
-9.5378
-8.33579
-7.27046
-6.29984
-5.6097
-5.17332
-4.83195
-4.49288
-4.20556
-3.95011
-3.70023
-3.5026
-3.34309
-3.19897
-3.09493
-3.00322
-2.87097
-2.68771
-2.51175
-2.34933
-2.1909
-2.05801
-1.94019
-1.82377
-1.72272
-1.63043
-1.54362
-1.48521
-1.45367
-1.43186
-1.40955
-1.39164
-1.3764
-1.3612
-1.35077
-1.34414
-1.33931
-1.33834
-1.33983
-1.34046
-1.33937
-1.33949
-1.34155
-1.34497
-1.34938
-1.35452
-1.35934
-1.36349
-1.36602
-1.36752
-27.4593
-27.5444
-27.6925
-27.8487
-27.8914
-27.589
-26.5718
-24.473
-21.4679
-18.712
-16.2904
-14.002
-12.1965
-10.677
-9.20404
-8.00166
-6.92878
-5.88545
-5.21245
-4.86116
-4.58725
-4.26153
-4.00236
-3.77322
-3.52368
-3.34548
-3.2096
-3.07533
-2.99955
-2.94303
-2.82389
-2.62351
-2.44425
-2.28453
-2.12011
-1.99259
-1.8818
-1.76311
-1.66561
-1.57515
-1.48189
-1.42688
-1.40637
-1.39367
-1.37444
-1.36072
-1.34926
-1.33504
-1.32712
-1.32335
-1.32002
-1.32169
-1.32633
-1.32888
-1.32793
-1.32871
-1.33195
-1.33653
-1.34214
-1.34855
-1.35452
-1.35951
-1.36251
-1.36421
-27.8304
-27.9514
-28.1761
-28.4559
-28.6708
-28.5595
-27.6415
-25.3295
-21.7319
-18.7223
-16.2004
-13.7001
-11.8898
-10.4087
-8.84419
-7.66251
-6.59728
-5.43351
-4.78415
-4.55086
-4.36087
-4.0303
-3.80349
-3.60704
-3.34413
-3.18885
-3.08165
-2.94831
-2.90547
-2.89487
-2.79103
-2.55898
-2.37676
-2.22324
-2.04688
-1.92749
-1.8271
-1.70193
-1.60992
-1.52266
-1.4171
-1.36592
-1.35993
-1.35811
-1.34002
-1.33081
-1.3237
-1.30906
-1.30387
-1.30338
-1.30081
-1.30531
-1.31373
-1.31831
-1.31672
-1.31801
-1.32258
-1.32828
-1.33512
-1.34287
-1.35011
-1.35593
-1.3594
-1.36127
-28.1687
-28.3264
-28.631
-29.0457
-29.4613
-29.599
-28.8562
-26.325
-21.9044
-18.6652
-16.1107
-13.3166
-11.5511
-10.1632
-8.44754
-7.32201
-6.2934
-4.93068
-4.31734
-4.24801
-4.1635
-3.79497
-3.60912
-3.45715
-3.15769
-3.03243
-2.9628
-2.81445
-2.81108
-2.8616
-2.77719
-2.4905
-2.30829
-2.16771
-1.96905
-1.86262
-1.77816
-1.63888
-1.55599
-1.47495
-1.34767
-1.30142
-1.31492
-1.32633
-1.30588
-1.30192
-1.30028
-1.28292
-1.28098
-1.28457
-1.28145
-1.28911
-1.30218
-1.30904
-1.30559
-1.30732
-1.31346
-1.32019
-1.32829
-1.33746
-1.34611
-1.35277
-1.35667
-1.35868
-28.4723
-28.6665
-29.0523
-29.6098
-30.2527
-30.7042
-30.2429
-27.5141
-21.922
-18.5246
-16.0544
-12.8209
-11.1796
-9.96903
-7.9943
-6.98408
-6.04423
-4.35581
-3.80249
-3.96011
-4.01022
-3.54712
-3.41898
-3.33218
-2.9576
-2.87583
-2.85892
-2.66828
-2.71408
-2.84673
-2.78929
-2.41198
-2.23759
-2.12183
-1.88307
-1.79782
-1.73819
-1.57154
-1.50417
-1.43508
-1.27111
-1.23223
-1.27212
-1.29992
-1.27117
-1.274
-1.27984
-1.25599
-1.25838
-1.26741
-1.26159
-1.27294
-1.29191
-1.30147
-1.2943
-1.29653
-1.30466
-1.31225
-1.32165
-1.3323
-1.34257
-1.35004
-1.35434
-1.35643
-28.7403
-28.9697
-29.4355
-30.1396
-31.0318
-31.8668
-31.83
-28.9794
-21.688
-18.2834
-16.087
-12.1644
-10.7747
-9.87033
-7.45049
-6.65271
-5.89125
-3.67595
-3.22837
-3.69695
-3.92231
-3.27185
-3.23239
-3.24553
-2.73275
-2.71861
-2.77938
-2.50143
-2.61137
-2.85435
-2.83751
-2.31374
-2.16324
-2.09197
-1.78328
-1.7329
-1.71218
-1.49579
-1.4548
-1.40778
-1.18354
-1.15701
-1.23254
-1.28114
-1.23436
-1.24695
-1.26367
-1.22723
-1.23601
-1.25268
-1.24061
-1.25659
-1.28315
-1.29613
-1.28242
-1.28552
-1.29631
-1.30443
-1.31517
-1.32736
-1.33953
-1.34775
-1.35238
-1.35451
-28.9724
-29.2346
-29.7769
-30.6266
-31.7833
-33.071
-33.6442
-30.846
-21.0579
-17.9257
-16.298
-11.2714
-10.3362
-9.93411
-6.76077
-6.33189
-5.89673
-2.84059
-2.58293
-3.47066
-3.92989
-2.94479
-3.04843
-3.21763
-2.46559
-2.56035
-2.73867
-2.30128
-2.4992
-2.88895
-2.93674
-2.18079
-2.08382
-2.0882
-1.66083
-1.66769
-1.70775
-1.40502
-1.40822
-1.40019
-1.07909
-1.07434
-1.19749
-1.27317
-1.19295
-1.22066
-1.25377
-1.19499
-1.21379
-1.2416
-1.21761
-1.23985
-1.2762
-1.29383
-1.2693
-1.27416
-1.28861
-1.29665
-1.30884
-1.32262
-1.33706
-1.34591
-1.35077
-1.3529
-29.1691
-29.4609
-30.0738
-31.0629
-32.4897
-34.2922
-35.7042
-33.3007
-19.8186
-17.4386
-16.8241
-10.0256
-9.86532
-10.2599
-5.83865
-6.02561
-6.1525
-1.77368
-1.85536
-3.29528
-4.07543
-2.52797
-2.86619
-3.27904
-2.12909
-2.40094
-2.75859
-2.04905
-2.37352
-2.95495
-3.10862
-1.99065
-1.99811
-2.12586
-1.50219
-1.60213
-1.73629
-1.28897
-1.36475
-1.42286
-0.948906
-0.982967
-1.16852
-1.28047
-1.14305
-1.19499
-1.25309
-1.15674
-1.19166
-1.23596
-1.19118
-1.22249
-1.27136
-1.29566
-1.25394
-1.26238
-1.28187
-1.2888
-1.30265
-1.31801
-1.33525
-1.34453
-1.34951
-1.35157
-29.3314
-29.6491
-30.3245
-31.4416
-33.1325
-35.4953
-38.011
-36.6186
-17.6618
-16.817
-17.8677
-8.25304
-9.36597
-10.9927
-4.5536
-5.73792
-6.79126
-0.362718
-1.03979
-3.18547
-4.41848
-1.96444
-2.68534
-3.47451
-1.68289
-2.24091
-2.87098
-1.71731
-2.23071
-3.05575
-3.38441
-1.71036
-1.90553
-2.22759
-1.28715
-1.53641
-1.81447
-1.13223
-1.32473
-1.49111
-0.779921
-0.882235
-1.14727
-1.30931
-1.07878
-1.16991
-1.26598
-1.10868
-1.16969
-1.23837
-1.15925
-1.20436
-1.2689
-1.30321
-1.23489
-1.25015
-1.27653
-1.28069
-1.29662
-1.31345
-1.33423
-1.34362
-1.34855
-1.35051
-29.4608
-29.8001
-30.5285
-31.7576
-33.6934
-36.6347
-40.5335
-41.1984
-14.1489
-16.0693
-19.7188
-5.69892
-8.84672
-12.339
-2.7145
-5.47327
-8.00103
1.55573
-0.141081
-3.15387
-5.04194
-1.17149
-2.50683
-3.86805
-1.06812
-2.082
-3.12123
-1.26657
-2.06902
-3.19222
-3.8086
-1.29271
-1.80673
-2.42592
-0.986276
-1.47122
-1.96612
-0.91235
-1.28857
-1.62665
-0.553174
-0.772754
-1.13526
-1.36835
-0.991592
-1.14553
-1.29861
-1.04527
-1.14807
-1.25254
-1.11879
-1.18547
-1.269
-1.31868
-1.21
-1.23757
-1.27325
-1.27201
-1.29081
-1.30881
-1.33419
-1.34316
-1.34788
-1.3497
-29.5596
-29.9158
-30.6867
-32.0077
-34.1559
-37.655
-43.187
-47.6087
-8.66747
-15.2257
-22.7826
-1.99898
-8.32426
-14.5871
-0.0489965
-5.23709
-10.043
4.21475
0.816263
-3.20661
-6.06018
-0.0320558
-2.33411
-4.54916
-0.200944
-1.92806
-3.57249
-0.640894
-1.89062
-3.36029
-4.4438
-0.67143
-1.70441
-2.76636
-0.557621
-1.40811
-2.22459
-0.597386
-1.25681
-1.85968
-0.241637
-0.657437
-1.13333
-1.46954
-0.869397
-1.1223
-1.35962
-0.958575
-1.1273
-1.28357
-1.06546
-1.1662
-1.27166
-1.34513
-1.17627
-1.225
-1.27287
-1.26232
-1.28535
-1.30393
-1.33538
-1.34313
-1.34749
-1.34915
-29.6299
-29.9985
-30.8007
-32.1911
-34.5073
-38.4949
-45.8042
-56.6445
-0.376701
-14.3498
-27.6108
3.35553
-7.82804
-18.1305
3.82147
-5.03684
-13.2731
7.94063
1.77557
-3.3363
-7.62928
1.61558
-2.1746
-5.64029
1.0353
-1.78623
-4.31065
0.237587
-1.70489
-3.54747
-5.3767
0.244627
-1.60445
-3.31107
0.0572252
-1.34998
-2.63552
-0.143041
-1.23026
-2.23137
0.192519
-0.542947
-1.141
-1.62912
-0.695463
-1.10115
-1.46082
-0.837568
-1.10832
-1.33843
-0.993183
-1.14751
-1.27648
-1.38676
-1.12954
-1.21313
-1.27653
-1.25094
-1.28053
-1.29855
-1.3382
-1.34352
-1.34739
-1.34886
-29.6743
-30.0509
-30.8733
-32.3094
-34.7402
-39.0945
-48.097
-69.3986
11.8574
-13.553
-34.9387
11.0593
-7.40655
-23.4962
9.41096
-4.88343
-18.1674
13.1817
2.63094
-3.51187
-9.95986
3.99001
-2.04172
-7.30541
2.79952
-1.66862
-5.45012
1.47547
-1.53284
-3.72806
-6.7256
1.57849
-1.51739
-4.14307
0.93783
-1.30181
-3.26013
0.510775
-1.2102
-2.79684
0.801262
-0.441661
-1.15531
-1.86899
-0.447152
-1.08382
-1.61797
-0.66718
-1.09277
-1.4263
-0.8936
-1.13131
-1.28243
-1.44929
-1.06414
-1.20318
-1.28568
-1.23689
-1.27681
-1.29234
-1.34318
-1.34426
-1.3476
-1.34888
-29.6954
-30.0758
-30.9079
-32.3663
-34.8543
-39.4064
-49.6078
-87.3451
29.538
-13.0134
-45.7248
22.0406
-7.13554
-31.3748
17.4025
-4.79331
-25.3506
20.5427
3.20501
-3.66455
-13.3325
7.38091
-1.95739
-9.7596
5.30362
-1.59439
-7.14024
3.21616
-1.41311
-3.85674
-8.64928
3.49322
-1.46021
-5.37089
2.19033
-1.27143
-4.17875
1.44387
-1.19857
-3.62839
1.65473
-0.374136
-1.16925
-2.2182
-0.0943663
-1.073
-1.8516
-0.427167
-1.08309
-1.55899
-0.75529
-1.12068
-1.28739
-1.54013
-0.972332
-1.19691
-1.3019
-1.21864
-1.27468
-1.28458
-1.3508
-1.34501
-1.34799
-1.34903
)
;

boundaryField
{
    left
    {
        type            calculated;
        value           nonuniform List<scalar> 
32
(
-20.1547
-20.2331
-20.382
-20.5931
-20.859
-21.1733
-21.5297
-21.9226
-22.3464
-22.7955
-23.2643
-23.7474
-24.2389
-24.7334
-25.2251
-25.7085
-26.1783
-26.6297
-27.058
-27.4593
-27.8304
-28.1687
-28.4723
-28.7403
-28.9724
-29.1691
-29.3314
-29.4608
-29.5596
-29.6299
-29.6743
-29.6954
)
;
    }
    right
    {
        type            calculated;
        value           nonuniform List<scalar> 
32
(
-1.45003
-1.44873
-1.44628
-1.44288
-1.43871
-1.43393
-1.42871
-1.42317
-1.41744
-1.41164
-1.40586
-1.40017
-1.39465
-1.38936
-1.38433
-1.37961
-1.37523
-1.37119
-1.36752
-1.36421
-1.36127
-1.35868
-1.35643
-1.35451
-1.3529
-1.35157
-1.35051
-1.3497
-1.34915
-1.34886
-1.34888
-1.34903
)
;
    }
    interface
    {
        type            calculated;
        value           nonuniform List<scalar> 
64
(
-29.7005
-30.0818
-30.9163
-32.38
-34.8821
-39.4858
-50.0983
-97.8274
39.9534
-12.8349
-52.1175
28.4828
-7.04912
-36.04
22.0958
-4.76654
-29.6028
24.8398
3.39431
-3.72372
-15.3194
9.3716
-1.93073
-11.2144
6.7708
-1.57103
-8.14403
4.23271
-1.37248
-3.90099
-9.77749
4.61895
-1.44169
-6.09906
2.92467
-1.26187
-4.72291
1.99158
-1.19516
-4.1209
2.15269
-0.35198
-1.17494
-2.42426
0.112429
-1.06963
-1.99042
-0.286859
-1.08008
-1.63818
-0.674804
-1.11723
-1.28925
-1.59368
-0.918705
-1.19494
-1.31196
-1.20821
-1.27407
-1.28019
-1.35532
-1.34532
-1.34818
-1.34908
)
;
    }
    bottom
    {
        type            calculated;
        value           nonuniform List<scalar> 
64
(
-20.1343
-20.0377
-19.8455
-19.5599
-19.1847
-18.7248
-18.1871
-17.5799
-16.9131
-16.198
-15.4464
-14.6703
-13.8817
-13.0917
-12.3103
-11.5463
-10.8067
-10.0973
-9.42223
-8.78426
-8.18491
-7.62465
-7.10306
-6.61906
-6.17105
-5.75713
-5.37515
-5.02292
-4.6982
-4.39887
-4.12291
-3.86847
-3.63389
-3.4177
-3.21859
-3.03541
-2.86714
-2.71286
-2.57172
-2.44295
-2.3258
-2.21955
-2.12348
-2.03692
-1.95917
-1.88957
-1.82748
-1.77228
-1.72337
-1.6802
-1.64225
-1.60902
-1.58006
-1.55497
-1.53336
-1.51489
-1.49926
-1.48618
-1.47542
-1.46678
-1.46008
-1.45517
-1.45196
-1.45037
)
;
    }
    defaultFaces
    {
        type            empty;
    }
}


// ************************************************************************* //
