/*--------------------------------*- C++ -*----------------------------------*\
| =========                 |                                                 |
| \\      /  F ield         | OpenFOAM: The Open Source CFD Toolbox           |
|  \\    /   O peration     | Version:  5.x                                   |
|   \\  /    A nd           | Web:      www.OpenFOAM.org                      |
|    \\/     M anipulation  |                                                 |
\*---------------------------------------------------------------------------*/
FoamFile
{
    version     2.0;
    format      ascii;
    class       volScalarField;
    location    "10.6";
    object      T;
}
// * * * * * * * * * * * * * * * * * * * * * * * * * * * * * * * * * * * * * //

dimensions      [0 0 0 1 0 0 0];

internalField   nonuniform List<scalar> 
2048
(
9.85535
9.85604
9.85742
9.85948
9.86217
9.86548
9.86934
9.8737
9.87849
9.88363
9.88903
9.8946
9.90027
9.90595
9.91156
9.91705
9.92236
9.92746
9.93231
9.93689
9.9412
9.94522
9.94897
9.95245
9.95567
9.95864
9.96138
9.96391
9.96625
9.9684
9.97038
9.97221
9.97389
9.97545
9.97688
9.97819
9.9794
9.98051
9.98152
9.98245
9.98329
9.98405
9.98474
9.98537
9.98592
9.98642
9.98687
9.98727
9.98762
9.98793
9.9882
9.98844
9.98865
9.98883
9.98898
9.98912
9.98923
9.98932
9.9894
9.98946
9.98951
9.98955
9.98957
9.98958
9.5718
9.57386
9.57796
9.58404
9.59204
9.60185
9.61332
9.62627
9.6405
9.65576
9.6718
9.68835
9.70516
9.722
9.73865
9.75492
9.77066
9.78575
9.80011
9.81366
9.8264
9.83829
9.84936
9.85963
9.86914
9.87792
9.88602
9.89348
9.90037
9.90671
9.91256
9.91796
9.92293
9.92751
9.93174
9.93562
9.93919
9.94246
9.94545
9.94818
9.95067
9.95292
9.95496
9.95679
9.95844
9.95991
9.96123
9.9624
9.96343
9.96435
9.96515
9.96585
9.96646
9.967
9.96745
9.96784
9.96817
9.96845
9.96868
9.96886
9.969
9.9691
9.96917
9.96921
9.2991
9.30248
9.3092
9.3192
9.33236
9.34849
9.36737
9.38871
9.41214
9.43727
9.46367
9.49092
9.51857
9.54625
9.57358
9.60028
9.62608
9.6508
9.67429
9.69645
9.71725
9.73666
9.75472
9.77146
9.78694
9.80124
9.81442
9.82658
9.83778
9.8481
9.85762
9.8664
9.87449
9.88195
9.88883
9.89515
9.90096
9.90629
9.91116
9.9156
9.91965
9.92331
9.92662
9.92961
9.93229
9.93468
9.93682
9.93872
9.9404
9.94188
9.94318
9.94432
9.94531
9.94617
9.94691
9.94755
9.94808
9.94853
9.94889
9.94919
9.94942
9.94958
9.94969
9.94975
9.03598
9.04065
9.04994
9.06377
9.08197
9.10431
9.13049
9.16008
9.19259
9.22745
9.26407
9.30183
9.34013
9.37841
9.41618
9.45302
9.48858
9.5226
9.55488
9.58531
9.61383
9.64042
9.66513
9.68801
9.70916
9.72868
9.74667
9.76325
9.77853
9.79261
9.80559
9.81757
9.82861
9.83879
9.84817
9.8568
9.86474
9.87201
9.87866
9.88473
9.89024
9.89524
9.89976
9.90382
9.90747
9.91073
9.91364
9.91622
9.9185
9.92052
9.92229
9.92383
9.92518
9.92635
9.92735
9.9282
9.92893
9.92953
9.93003
9.93043
9.93073
9.93096
9.93111
9.93118
8.78142
8.78734
8.79915
8.81673
8.83991
8.8684
8.9018
8.9396
8.98114
9.0257
9.07248
9.12067
9.1695
9.21824
9.26626
9.31301
9.35807
9.4011
9.44188
9.48024
9.51614
9.54958
9.58061
9.60931
9.63582
9.66026
9.68278
9.70352
9.72263
9.74024
9.75648
9.77146
9.78528
9.79802
9.80977
9.82058
9.83051
9.83962
9.84795
9.85555
9.86245
9.86871
9.87435
9.87943
9.88399
9.88806
9.89168
9.8949
9.89774
9.90025
9.90245
9.90437
9.90604
9.90749
9.90873
9.90979
9.91069
9.91144
9.91205
9.91254
9.91292
9.9132
9.91338
9.91347
8.53456
8.54172
8.55599
8.57727
8.60536
8.63995
8.68058
8.72659
8.77721
8.83149
8.88845
8.94707
9.00638
9.06549
9.12362
9.18011
9.23444
9.28623
9.3352
9.3812
9.42416
9.46411
9.50112
9.53533
9.56688
9.59595
9.62271
9.64735
9.67004
9.69096
9.71024
9.72804
9.74446
9.75961
9.77358
9.78645
9.79827
9.80911
9.81902
9.82805
9.83626
9.84369
9.85039
9.85641
9.86181
9.86663
9.87092
9.87472
9.87808
9.88104
9.88364
9.8859
9.88787
9.88957
9.89104
9.89228
9.89333
9.89421
9.89493
9.8955
9.89595
9.89627
9.89648
9.89659
8.29471
8.30307
8.31975
8.34467
8.37763
8.41831
8.46618
8.52048
8.58025
8.64436
8.71159
8.7807
8.8505
8.91994
8.98808
9.05416
9.11757
9.17787
9.23476
9.28808
9.33779
9.38392
9.4266
9.46598
9.50227
9.53566
9.56639
9.59466
9.6207
9.64469
9.66682
9.68724
9.7061
9.72351
9.73957
9.75436
9.76795
9.78041
9.79181
9.80219
9.81162
9.82014
9.82783
9.83473
9.84091
9.84642
9.85132
9.85566
9.8595
9.86287
9.86582
9.8684
9.87064
9.87257
9.87423
9.87564
9.87683
9.87782
9.87863
9.87928
9.87978
9.88015
9.88038
9.8805
8.06132
8.07084
8.08987
8.11835
8.15614
8.20289
8.25804
8.32073
8.3898
8.46391
8.54156
8.62126
8.70162
8.78138
8.85946
8.935
9.00731
9.0759
9.14045
9.2008
9.25692
9.30891
9.35693
9.40117
9.44188
9.47931
9.51372
9.54537
9.5745
9.60134
9.62611
9.64899
9.67012
9.68965
9.70766
9.72425
9.73951
9.75349
9.76628
9.77792
9.78849
9.79804
9.80664
9.81435
9.82125
9.8274
9.83286
9.83769
9.84195
9.8457
9.84897
9.85183
9.85431
9.85645
9.85828
9.85984
9.86115
9.86224
9.86313
9.86384
9.86439
9.86479
9.86505
9.86518
7.83391
7.84455
7.86585
7.89782
7.94036
7.99317
8.05567
8.12688
8.20546
8.28977
8.37805
8.46851
8.55952
8.64962
8.7376
8.82249
8.90352
8.98017
9.05211
9.11919
9.18143
9.23895
9.29197
9.34075
9.38558
9.42675
9.46457
9.49934
9.53133
9.56081
9.58803
9.61318
9.63643
9.65793
9.67777
9.69606
9.71287
9.72828
9.74237
9.75519
9.76682
9.77732
9.78677
9.79523
9.80278
9.80951
9.81547
9.82075
9.8254
9.82948
9.83305
9.83616
9.83885
9.84117
9.84315
9.84484
9.84625
9.84743
9.84839
9.84915
9.84974
9.85017
9.85044
9.85058
7.61216
7.62385
7.64732
7.68265
7.72986
7.78872
7.85863
7.93854
8.02686
8.12166
8.22081
8.32222
8.42399
8.52448
8.62232
8.71645
8.80604
8.89054
8.9696
9.04312
9.11114
9.17386
9.23157
9.28457
9.33322
9.37785
9.41881
9.45644
9.49106
9.52297
9.55244
9.5797
9.60493
9.62826
9.64982
9.66969
9.68796
9.70471
9.72002
9.73394
9.74656
9.75794
9.76816
9.7773
9.78546
9.79271
9.79913
9.80481
9.8098
9.81418
9.81801
9.82133
9.82421
9.82669
9.82881
9.8306
9.83211
9.83335
9.83437
9.83517
9.83579
9.83624
9.83654
9.83668
7.39577
7.40845
7.43396
7.47251
7.52425
7.58911
7.66652
7.75532
7.85368
7.95928
8.0696
8.1822
8.29488
8.40579
8.51346
8.61672
8.71471
8.80684
8.89276
8.9724
9.04588
9.11348
9.17555
9.23247
9.28464
9.33245
9.37629
9.41654
9.45355
9.48769
9.51923
9.54844
9.5755
9.60055
9.62371
9.64506
9.66471
9.68271
9.69916
9.71411
9.72764
9.73983
9.75077
9.76053
9.76923
9.77695
9.78378
9.78981
9.79512
9.79976
9.80381
9.80733
9.81037
9.81298
9.81521
9.8171
9.81868
9.81998
9.82104
9.82188
9.82252
9.82299
9.82329
9.82344
7.18456
7.19814
7.22552
7.26709
7.32321
7.39398
7.47896
7.57688
7.68563
7.80241
7.92424
8.04827
8.172
8.29339
8.41085
8.52314
8.62936
8.72889
8.8214
8.90685
8.98546
9.05761
9.12371
9.18425
9.23966
9.29038
9.33684
9.37947
9.41867
9.45482
9.48827
9.51928
9.54804
9.5747
9.59935
9.6221
9.64302
9.6622
9.67971
9.69562
9.71001
9.72295
9.73453
9.74486
9.75404
9.76218
9.76938
9.77572
9.78129
9.78617
9.79041
9.7941
9.79727
9.8
9.80232
9.80429
9.80593
9.80728
9.80837
9.80924
9.8099
9.81037
9.81068
9.81083
6.97838
6.99275
7.02182
7.06616
7.12643
7.20299
7.29559
7.4029
7.52244
7.65084
7.78456
7.92029
8.05522
8.18713
8.31433
8.43553
8.54981
8.65652
8.75535
8.84629
8.92969
9.00604
9.07587
9.13972
9.19809
9.25146
9.3003
9.34508
9.38624
9.42423
9.45941
9.49208
9.52243
9.55059
9.57665
9.6007
9.62283
9.6431
9.66161
9.67841
9.69359
9.70722
9.71939
9.73022
9.73984
9.74835
9.75587
9.76249
9.7683
9.77337
9.77778
9.7816
9.78489
9.78771
9.79011
9.79214
9.79383
9.79521
9.79633
9.79721
9.79788
9.79836
9.79867
9.79882
6.77716
6.79218
6.82269
6.86952
6.93364
7.01583
7.11608
7.23307
7.36387
7.5044
7.65042
7.79813
7.9444
8.08684
8.22372
8.35371
8.47587
8.58955
8.69441
8.79052
8.87836
8.95858
9.03182
9.09869
9.15976
9.21553
9.26651
9.31322
9.35614
9.39577
9.43253
9.46673
9.49856
9.52813
9.55551
9.58079
9.60404
9.62534
9.64478
9.66242
9.67833
9.69259
9.70529
9.71657
9.72657
9.73541
9.7432
9.75006
9.75607
9.76132
9.76587
9.7698
9.77319
9.77608
9.77855
9.78062
9.78234
9.78375
9.78489
9.78577
9.78644
9.78692
9.78724
9.78738
6.58085
6.59638
6.62806
6.677
6.74461
6.83217
6.94009
7.0671
7.20973
7.36294
7.5217
7.68169
7.83941
7.99238
8.13885
8.27749
8.40736
8.5278
8.6384
8.73932
8.83124
8.91499
8.99134
9.06096
9.12447
9.18241
9.23531
9.28373
9.3282
9.36929
9.40748
9.44311
9.47633
9.50722
9.53584
9.56227
9.58657
9.60884
9.62915
9.64757
9.66417
9.679
9.69218
9.70385
9.71418
9.7233
9.73134
9.7384
9.74459
9.74997
9.75464
9.75867
9.76212
9.76508
9.76759
9.7697
9.77144
9.77287
9.77401
9.77489
9.77556
9.77603
9.77634
9.77649
6.38945
6.40533
6.43786
6.48849
6.55914
6.65173
6.76729
6.9047
7.05982
7.22636
7.39833
7.57088
7.74014
7.90359
8.05955
8.20668
8.34408
8.47107
8.58712
8.69249
8.78811
8.87507
8.95421
9.02632
9.09204
9.15192
9.20653
9.25646
9.30229
9.34465
9.38414
9.42109
9.45561
9.48775
9.51756
9.54506
9.57035
9.59353
9.61466
9.63381
9.65104
9.6664
9.68
9.69201
9.70262
9.71198
9.72022
9.72746
9.73379
9.73929
9.74405
9.74815
9.75166
9.75466
9.7572
9.75934
9.7611
9.76253
9.76366
9.76454
9.7652
9.76566
9.76596
9.7661
6.20299
6.21904
6.25207
6.30389
6.37703
6.47422
6.59732
6.74556
6.91401
7.09458
7.28022
7.46562
7.64647
7.8203
7.98563
8.14108
8.28582
8.41918
8.5404
8.64981
8.74874
8.83857
8.92024
8.99457
9.06229
9.12391
9.18002
9.23127
9.27826
9.32172
9.36236
9.40056
9.43632
9.46965
9.50057
9.52908
9.5553
9.57932
9.60122
9.62106
9.6389
9.65473
9.66869
9.68098
9.69183
9.70139
9.70981
9.7172
9.72365
9.72924
9.73408
9.73822
9.74177
9.74479
9.74736
9.74951
9.75128
9.75271
9.75383
9.75469
9.75533
9.75578
9.75607
9.75621
6.02151
6.03753
6.07068
6.12314
6.19812
6.29935
6.42981
6.58939
6.77217
6.96755
7.16733
7.36587
7.55829
7.74233
7.9169
8.08045
8.23235
8.37197
8.49806
8.61107
8.71289
8.8053
8.8892
8.96552
9.03506
9.09822
9.15563
9.20803
9.25599
9.30035
9.34202
9.3814
9.41836
9.45281
9.48479
9.51426
9.54133
9.56616
9.58878
9.60927
9.62768
9.64395
9.65821
9.67073
9.68177
9.6915
9.70006
9.70757
9.71412
9.71978
9.72467
9.72885
9.73241
9.73545
9.73804
9.74019
9.74196
9.74337
9.74448
9.74532
9.74594
9.74636
9.74664
9.74677
5.84508
5.86087
5.89373
5.94623
6.0223
6.12683
6.26437
6.43585
6.63426
6.84529
7.0596
7.27158
7.47548
7.66948
7.85316
8.02459
8.18345
8.32926
8.45994
8.57605
8.68031
8.77501
8.86089
8.93897
9.01017
9.07468
9.13322
9.18661
9.23533
9.2804
9.32297
9.36353
9.40163
9.43715
9.47017
9.50052
9.52839
9.55398
9.57727
9.59837
9.61734
9.634
9.6485
9.66119
9.67239
9.68225
9.69092
9.69854
9.70516
9.71088
9.71581
9.72
9.72356
9.72661
9.7292
9.73136
9.73311
9.73451
9.73559
9.7364
9.73699
9.73739
9.73765
9.73777
5.67374
5.68911
5.72128
5.77316
5.84946
5.95641
6.10055
6.28457
6.50029
6.72783
6.95697
7.18275
7.39792
7.60153
7.79424
7.97325
8.13884
8.29092
8.42589
8.54452
8.65074
8.74751
8.83511
8.91472
8.98747
9.05317
9.11264
9.16689
9.21619
9.26173
9.3051
9.34684
9.38606
9.4226
9.45662
9.4878
9.51638
9.54271
9.56663
9.5883
9.60783
9.62485
9.63951
9.65232
9.66365
9.67361
9.68236
9.69007
9.69675
9.7025
9.70745
9.71164
9.71519
9.71822
9.72082
9.72297
9.72471
9.72608
9.72713
9.72791
9.72846
9.72884
9.72908
9.72919
5.50757
5.52233
5.55338
5.60398
5.67954
5.78781
5.93786
6.13511
6.3704
6.61527
6.85933
7.09942
7.3255
7.53819
7.73997
7.92618
8.09823
8.25685
8.39581
8.51625
8.62389
8.72259
8.81166
8.89256
8.96682
9.03354
9.09375
9.14878
9.19845
9.24421
9.28826
9.33127
9.37157
9.40906
9.44409
9.47602
9.50525
9.5323
9.55679
9.579
9.59911
9.61645
9.6312
9.64405
9.65549
9.66552
9.67433
9.68212
9.68884
9.69461
9.69958
9.70375
9.70726
9.71027
9.71287
9.71502
9.71674
9.71808
9.71909
9.71982
9.72034
9.72068
9.7209
9.721
5.34663
5.36058
5.39012
5.43874
5.51253
5.62081
5.77577
5.98693
6.24486
6.50774
6.76652
7.02166
7.25811
7.47913
7.69023
7.88313
8.06125
8.22699
8.3696
8.49099
8.59945
8.7001
8.79037
8.87229
8.94813
9.01566
9.0764
9.13221
9.18202
9.2277
9.27229
9.31675
9.35811
9.39646
9.43255
9.46513
9.4949
9.5227
9.5477
9.5704
9.59116
9.60878
9.62352
9.63635
9.64789
9.65796
9.6668
9.67468
9.68142
9.68718
9.69216
9.6963
9.69974
9.70272
9.70534
9.70748
9.70916
9.71047
9.71144
9.71212
9.71259
9.7129
9.7131
9.71319
5.19096
5.20395
5.23159
5.27754
5.34846
5.45522
5.61365
5.83932
6.12418
6.40544
6.67822
6.94967
7.19561
7.42392
7.64496
7.84383
8.02745
8.20136
8.34721
8.46846
8.57706
8.6799
8.77107
8.85368
8.9313
8.99943
9.06043
9.11713
9.16683
9.21204
9.25704
9.30327
9.34561
9.38469
9.42195
9.45507
9.48525
9.51387
9.53929
9.56242
9.58395
9.60182
9.61642
9.62914
9.64081
9.65088
9.65971
9.6677
9.67444
9.68017
9.68517
9.68926
9.69262
9.69555
9.69819
9.70032
9.70197
9.70324
9.70416
9.70478
9.7052
9.70547
9.70565
9.70573
5.0406
5.05247
5.07787
5.12051
5.18742
5.29089
5.45085
5.69132
6.0092
6.30859
6.59394
6.88377
7.13789
7.37195
7.60423
7.80801
7.99625
8.18009
8.32866
8.44838
8.55632
8.66194
8.7536
8.83646
8.91631
8.98473
9.04565
9.10351
9.15283
9.1971
9.24231
9.29082
9.33405
9.37364
9.41229
9.4458
9.47621
9.50579
9.53152
9.55497
9.57748
9.59553
9.60984
9.62237
9.63422
9.64426
9.65304
9.66117
9.66789
9.67355
9.67859
9.68261
9.68585
9.68873
9.69142
9.69354
9.69514
9.69636
9.69723
9.6978
9.69816
9.69838
9.69854
9.69861
4.89556
4.90619
4.92905
4.96778
5.02956
5.12778
5.28665
5.54162
5.90119
6.21746
6.51286
6.82454
7.08481
7.32245
7.5683
7.77541
7.96688
8.16349
8.31396
8.43043
8.53674
8.64623
8.73782
8.82031
8.90319
8.97146
9.03185
9.09139
9.13998
9.1827
9.22788
9.27947
9.32337
9.36318
9.40361
9.43725
9.46765
9.49848
9.52433
9.54794
9.57177
9.58991
9.60374
9.61597
9.62812
9.63806
9.64672
9.65508
9.66173
9.66729
9.67241
9.67634
9.67943
9.68223
9.68501
9.68711
9.68865
9.68983
9.69064
9.69114
9.69143
9.69162
9.69175
9.6918
4.75583
4.76512
4.7852
4.8195
4.87507
4.96594
5.12034
5.38834
5.8021
6.13234
6.43376
6.77286
7.03623
7.27432
7.53769
7.74574
7.93829
8.15207
8.30319
8.41424
8.5177
8.63295
8.72361
8.80483
8.89204
8.95954
9.01873
9.08087
9.12825
9.1687
9.21345
9.26936
9.31355
9.35312
9.39595
9.4294
9.45942
9.49197
9.51767
9.5412
9.56686
9.58496
9.59807
9.60986
9.62249
9.63226
9.64071
9.64942
9.65595
9.66135
9.66662
9.67042
9.67331
9.67601
9.67894
9.68101
9.68247
9.68361
9.68436
9.6848
9.68501
9.68515
9.68526
9.68531
4.62139
4.62928
4.64638
4.67583
4.72423
4.80556
4.95126
5.22888
5.71473
6.05348
6.35479
6.73014
6.99202
7.22606
7.51331
7.71873
7.90909
8.14669
8.29644
8.39944
8.49845
8.62242
8.71086
8.7895
8.88313
8.94888
9.00592
9.0721
9.11765
9.15493
9.19868
9.26073
9.30458
9.3432
9.38947
9.42219
9.45133
9.48635
9.5115
9.53457
9.56284
9.58066
9.59276
9.60394
9.61737
9.62683
9.63494
9.6442
9.65053
9.65567
9.66121
9.66485
9.66748
9.67005
9.67322
9.67524
9.6766
9.67771
9.67839
9.67875
9.67888
9.67898
9.67907
9.6791
4.49219
4.49863
4.51264
4.53691
4.57731
4.647
4.77891
5.05957
5.64307
5.9811
6.27329
6.69847
6.95199
7.17561
7.49661
7.69413
7.87734
8.14864
8.29376
8.3856
8.47803
8.61523
8.69945
8.77363
8.87686
8.93938
8.99294
9.06539
9.10819
9.14125
9.18307
9.25395
9.29642
9.33311
9.38436
9.41558
9.44312
9.48178
9.50576
9.52781
9.55983
9.57702
9.58775
9.59809
9.61279
9.62174
9.62933
9.63945
9.64544
9.65022
9.6562
9.6596
9.6619
9.6643
9.66784
9.66978
9.671
9.6721
9.67271
9.67299
9.67302
9.67308
9.67314
9.67317
4.36816
4.37314
4.38399
4.40288
4.43465
4.49077
4.60309
4.87526
5.5927
5.91528
6.18552
6.68087
6.91593
7.12016
7.48977
7.67166
7.84046
8.15985
8.29513
8.37233
8.45519
8.61226
8.68929
8.7563
8.87388
8.93097
8.97913
9.06117
9.09985
9.12751
9.16599
9.24957
9.28904
9.32238
9.38095
9.40953
9.43445
9.47848
9.50042
9.52061
9.55806
9.57401
9.583
9.59218
9.60883
9.61698
9.62378
9.63521
9.64066
9.64491
9.65159
9.65465
9.65657
9.65872
9.66282
9.6646
9.66565
9.66678
9.6673
9.6675
9.66741
9.66743
9.66748
9.6675
4.24922
4.25273
4.26041
4.27383
4.29659
4.33757
4.42416
4.66892
5.57122
5.85587
6.08637
6.68163
6.88352
7.05596
7.49591
7.65106
7.79502
8.183
8.30038
8.35925
8.42833
8.61484
8.68025
8.73631
8.87512
8.92352
8.96363
9.06006
9.09263
9.11364
9.14661
9.24837
9.2824
9.31041
9.37973
9.404
9.42487
9.47683
9.49543
9.51255
9.55782
9.5716
9.57844
9.58602
9.60563
9.61251
9.61816
9.63156
9.63617
9.63967
9.64743
9.65001
9.65145
9.65325
9.65817
9.65971
9.66053
9.66172
9.66214
9.66227
9.66204
9.66204
9.66207
9.66208
4.13526
4.13734
4.14189
4.14986
4.16344
4.18825
4.24328
4.43095
5.58886
5.8024
5.96901
6.70669
6.85435
6.97803
7.5194
7.63206
7.73647
8.22188
8.30901
8.34612
8.39539
8.62479
8.67218
8.71208
8.88189
8.91691
8.94532
9.06294
9.08643
9.09964
9.12382
9.2514
9.27642
9.29641
9.38134
9.39892
9.41378
9.47731
9.49075
9.50311
9.55953
9.56973
9.57403
9.57939
9.60335
9.60832
9.61231
9.62861
9.63194
9.63439
9.64378
9.64563
9.64653
9.64782
9.65393
9.65507
9.65562
9.65694
9.65723
9.65729
9.6569
9.65687
9.65689
9.65689
4.02617
4.02686
4.02836
4.03098
4.03548
4.04375
4.06281
4.14853
5.65912
5.75393
5.82449
6.764
6.82782
6.87989
7.5661
7.61435
7.65895
8.28157
8.32009
8.33287
8.3537
8.6446
8.6649
8.68157
8.89599
8.91097
8.92278
9.07103
9.08109
9.08563
9.09619
9.2601
9.27098
9.27935
9.38669
9.39421
9.40043
9.48061
9.48633
9.49158
9.56378
9.56828
9.56976
9.572
9.60224
9.60437
9.60602
9.62653
9.62795
9.62896
9.64071
9.6415
9.64181
9.64236
9.65016
9.65066
9.65087
9.65243
9.65254
9.65256
9.65195
9.65193
9.65194
9.65194
)
;

boundaryField
{
    left
    {
        type            zeroGradient;
    }
    right
    {
        type            zeroGradient;
    }
    interface
    {
        type            fixedValue;
        value           nonuniform List<scalar> 
64
(
3.97283
3.97283
3.97283
3.97283
3.97283
3.97283
3.97283
3.97283
5.73088
5.73088
5.73088
6.81516
6.81516
6.81516
7.60578
7.60578
7.60578
8.32618
8.32618
8.32618
8.32618
8.66143
8.66143
8.66143
8.90815
8.90815
8.90815
9.07863
9.07863
9.07863
9.07863
9.26839
9.26839
9.26839
9.39194
9.39194
9.39194
9.48418
9.48418
9.48418
9.56764
9.56764
9.56764
9.56764
9.60244
9.60244
9.60244
9.62601
9.62601
9.62601
9.6395
9.6395
9.6395
9.6395
9.64851
9.64851
9.64851
9.65026
9.65026
9.65026
9.64951
9.64951
9.64951
9.64951
)
;
    }
    bottom
    {
        type            fixedValue;
        value           uniform 10;
    }
    defaultFaces
    {
        type            empty;
    }
}


// ************************************************************************* //
