/*--------------------------------*- C++ -*----------------------------------*\
| =========                 |                                                 |
| \\      /  F ield         | OpenFOAM: The Open Source CFD Toolbox           |
|  \\    /   O peration     | Version:  5.x                                   |
|   \\  /    A nd           | Web:      www.OpenFOAM.org                      |
|    \\/     M anipulation  |                                                 |
\*---------------------------------------------------------------------------*/
FoamFile
{
    version     2.0;
    format      ascii;
    class       volScalarField;
    location    "4.9";
    object      gradTx;
}
// * * * * * * * * * * * * * * * * * * * * * * * * * * * * * * * * * * * * * //

dimensions      [0 -1 0 1 0 0 0];

internalField   nonuniform List<scalar> 
2048
(
0.0217787
0.0650891
0.107639
0.148852
0.188075
0.224587
0.257633
0.286494
0.310554
0.32937
0.342717
0.350606
0.353268
0.351122
0.344727
0.334729
0.321817
0.306682
0.28998
0.272313
0.254205
0.236097
0.21834
0.201204
0.184881
0.1695
0.155132
0.141804
0.129509
0.118209
0.107848
0.0983569
0.0896609
0.0816855
0.0743609
0.0676246
0.0614227
0.0557096
0.0504478
0.0456064
0.0411597
0.037086
0.033366
0.029981
0.0269124
0.0241405
0.0216443
0.0194018
0.0173897
0.0155845
0.0139619
0.0124981
0.0111697
0.0099541
0.00883021
0.00777869
0.00678247
0.00582693
0.00490004
0.00399232
0.00309665
0.00220801
0.00132328
0.000440803
0.0645877
0.193051
0.319314
0.441692
0.558245
0.666806
0.765096
0.850925
0.922418
0.978228
1.01768
1.04081
1.04833
1.04153
1.02209
0.99196
0.953219
0.90793
0.85806
0.805396
0.7515
0.697675
0.644959
0.594141
0.545782
0.50025
0.457751
0.418358
0.38204
0.348682
0.318109
0.290113
0.264466
0.240947
0.219345
0.199475
0.181178
0.16432
0.14879
0.134498
0.121371
0.109344
0.0983618
0.0883704
0.079315
0.0711377
0.0637766
0.0571662
0.0512377
0.0459207
0.0411438
0.0368358
0.0329273
0.0293511
0.0260446
0.0229501
0.0200171
0.0172022
0.0144699
0.0117922
0.00914844
0.00652398
0.00390984
0.00130228
0.106062
0.317081
0.52467
0.726131
0.918272
1.09745
1.25979
1.40152
1.51939
1.61109
1.67547
1.71263
1.72384
1.7113
1.67791
1.62697
1.56196
1.48635
1.40341
1.3161
1.227
1.13823
1.05149
0.968037
0.888764
0.814244
0.744789
0.680496
0.621292
0.566971
0.517229
0.471707
0.430021
0.391794
0.35668
0.324372
0.29461
0.267177
0.241896
0.218624
0.197242
0.177653
0.159766
0.143499
0.128762
0.115462
0.103499
0.0927634
0.0831431
0.0745218
0.0667821
0.0598071
0.0534819
0.047696
0.0423456
0.037336
0.0325836
0.0280174
0.0235796
0.0192249
0.0149203
0.0106429
0.00637856
0.00212417
0.146482
0.438061
0.725286
1.00458
1.27152
1.52092
1.74712
1.94453
2.10836
2.23517
2.32332
2.37303
2.38624
2.36621
2.31719
2.24394
2.15143
2.04456
1.92794
1.80572
1.68147
1.55813
1.43797
1.3227
1.21346
1.11101
1.01571
0.927654
0.846709
0.77255
0.704727
0.642711
0.585946
0.533895
0.486071
0.442048
0.401472
0.364049
0.329543
0.297764
0.268558
0.241797
0.217367
0.195158
0.175053
0.156925
0.140635
0.126033
0.112962
0.101262
0.0907705
0.0813243
0.0727645
0.0649373
0.057698
0.0509147
0.0444715
0.0382706
0.0322327
0.0262969
0.0204195
0.0145717
0.00873455
0.00290835
0.186006
0.556504
0.922151
1.27866
1.62042
1.94056
2.23134
2.48504
2.69498
2.85642
2.96716
3.02765
3.04068
3.01083
2.94384
2.84611
2.7242
2.58453
2.43308
2.27521
2.1155
1.95765
1.80448
1.65803
1.51968
1.39028
1.2702
1.15951
1.05798
0.965137
0.880357
0.802919
0.732075
0.667113
0.607402
0.552402
0.501669
0.454843
0.411635
0.371818
0.33521
0.301663
0.271046
0.243229
0.218071
0.195413
0.175079
0.156879
0.140611
0.12607
0.113048
0.10134
0.0907405
0.0810527
0.0720905
0.0636844
0.0556862
0.0479718
0.0404418
0.0330213
0.0256578
0.0183196
0.010984
0.00365702
0.224671
0.672574
1.1157
1.54928
1.96657
2.35882
2.71583
3.02724
3.284
3.47982
3.61191
3.6811
3.69132
3.64874
3.56088
3.43594
3.28221
3.1077
2.91984
2.72525
2.52949
2.337
2.15107
1.97402
1.80735
1.65194
1.50814
1.37595
1.25499
1.14464
1.04407
0.952314
0.868415
0.791474
0.720707
0.655467
0.595229
0.539576
0.488178
0.440779
0.397178
0.357218
0.320759
0.28766
0.257761
0.230874
0.206784
0.185258
0.166051
0.148913
0.133593
0.119839
0.107403
0.0960437
0.085532
0.0756597
0.066246
0.0571413
0.0482274
0.0394169
0.0306512
0.0218986
0.0131343
0.00437261
0.2624
0.786098
1.30583
1.81668
2.31084
2.77742
3.20326
3.57463
3.87951
4.10967
4.26173
4.33718
4.34145
4.2827
4.17056
4.01522
3.82682
3.61506
3.38889
3.15623
2.92366
2.69629
2.47782
2.27071
2.0765
1.89602
1.72956
1.57698
1.43778
1.31114
1.19596
1.09103
0.99512
0.907135
0.826139
0.751383
0.682276
0.618356
0.559263
0.504718
0.454514
0.408493
0.366522
0.328457
0.294124
0.263305
0.235747
0.21117
0.189285
0.169797
0.15241
0.136831
0.122767
0.109931
0.0980474
0.0868687
0.0761804
0.0658079
0.0556161
0.0455071
0.0354183
0.0253223
0.0151934
0.00505772
0.299004
0.896579
1.49194
2.08047
2.65339
3.19744
3.69572
4.13024
4.48513
4.74976
4.9202
4.99899
4.99363
4.91476
4.77447
4.58516
4.35892
4.10721
3.84058
3.56833
3.29809
3.03559
2.78479
2.54819
2.32725
2.12265
1.93458
1.76276
1.60652
1.46481
1.33626
1.21931
1.11246
1.01436
0.923948
0.840376
0.763011
0.691361
0.625042
0.563764
0.507321
0.455569
0.408395
0.365667
0.327198
0.292742
0.262001
0.234648
0.210344
0.18875
0.16953
0.152348
0.136866
0.122749
0.109675
0.0973503
0.0855273
0.0740071
0.0626394
0.0513183
0.0399801
0.0286056
0.01717
0.00571503
0.33419
1.00321
1.67294
2.33962
2.99375
3.61932
4.19486
4.69677
5.10418
5.40351
5.59041
5.66908
5.64981
5.54636
5.37366
5.14651
4.87902
4.58444
4.27501
3.96153
3.65272
3.35488
3.07206
2.80663
2.55981
2.33208
2.12345
1.93353
1.76146
1.60596
1.4653
1.33753
1.2208
1.11351
1.01446
0.922738
0.837693
0.758818
0.685718
0.618094
0.555746
0.498564
0.446473
0.399366
0.357053
0.31925
0.28561
0.255751
0.229283
0.205825
0.185
0.166434
0.149745
0.134546
0.120462
0.107152
0.0943314
0.0817793
0.0693322
0.0568795
0.0443587
0.0317639
0.0190728
0.00634707
0.367568
1.1049
1.84726
2.59251
3.33077
4.04299
4.70195
5.27674
5.73989
6.07414
6.2751
6.34948
6.31135
6.17836
5.96868
5.69964
5.38735
5.04682
4.69208
4.33565
3.98743
3.65414
3.33974
3.04625
2.77448
2.52463
2.29652
2.08962
1.90294
1.73494
1.58348
1.44613
1.32059
1.20501
1.09805
0.998803
0.906618
0.820995
0.741529
0.667915
0.599968
0.537622
0.480871
0.429655
0.383778
0.342915
0.306657
0.274559
0.246178
0.221088
0.198881
0.179145
0.161458
0.145377
0.130464
0.116326
0.102642
0.089168
0.0757317
0.0622208
0.0485767
0.0348124
0.0209099
0.00695608
0.398661
1.20028
2.0129
2.83693
3.66269
4.46784
5.21801
5.87264
6.39547
6.76476
6.97668
7.04173
6.97906
6.81109
6.55965
6.24459
5.8839
5.49424
5.09156
4.6904
4.30198
3.93334
3.588
3.26737
2.97168
2.70073
2.45418
2.23141
2.03133
1.85217
1.69129
1.54562
1.41234
1.28931
1.17514
1.06893
0.970106
0.878179
0.792739
0.713466
0.640186
0.572904
0.51172
0.456646
0.407481
0.363843
0.325246
0.29117
0.261116
0.234618
0.21124
0.190542
0.172064
0.155301
0.139743
0.124932
0.110511
0.0962187
0.0818759
0.0673728
0.0526567
0.0377658
0.0226887
0.00754382
0.426925
1.28778
2.16744
3.07008
3.98706
4.8927
5.74381
6.48706
7.07431
7.47839
7.69724
7.74692
7.65319
7.44438
7.14629
6.78116
6.36855
5.9265
5.47306
5.02532
4.59611
4.19246
3.81707
3.47039
3.15189
2.86089
2.59691
2.35933
2.14705
1.95809
1.78925
1.63658
1.49661
1.36695
1.24617
1.13351
1.02849
0.930674
0.839627
0.755
0.676619
0.604582
0.539156
0.480458
0.428279
0.382151
0.341492
0.305695
0.274197
0.246502
0.222151
0.20069
0.181625
0.164385
0.148362
0.13303
0.117993
0.102977
0.0878025
0.0723657
0.0566203
0.0406374
0.024415
0.00811132
0.451769
1.36564
2.30811
3.2886
4.30077
5.31585
6.27998
7.12286
7.78012
8.21811
8.43862
8.46562
8.33343
8.0776
7.72802
7.30895
6.84111
6.3434
5.83613
5.33988
4.86948
4.43151
4.02724
3.65584
3.31572
3.00569
2.72525
2.47384
2.2505
2.05318
1.87793
1.71964
1.57401
1.43844
1.3116
1.1929
1.0821
0.978783
0.882482
0.79279
0.709499
0.632833
0.563312
0.501215
0.446296
0.397968
0.355526
0.318256
0.285531
0.256832
0.231691
0.209653
0.190205
0.172694
0.156391
0.140683
0.125142
0.109488
0.0935479
0.077229
0.0604884
0.0434386
0.0260928
0.00865865
0.472579
1.43202
2.4319
3.4886
4.59994
5.73491
6.827
7.78336
8.51708
8.98699
9.20232
9.19793
9.01889
8.70966
8.30398
7.82746
7.30146
6.74478
6.18022
5.63339
5.12174
4.6506
4.21893
3.82434
3.46389
3.13581
2.83978
2.57542
2.34208
2.13786
1.95794
1.7955
1.64519
1.50435
1.37186
1.24747
1.13124
1.02281
0.921597
0.827119
0.73907
0.657829
0.584315
0.519034
0.461662
0.411429
0.367482
0.328981
0.29523
0.265704
0.239936
0.217491
0.197861
0.180297
0.163902
0.147953
0.13201
0.115795
0.0991464
0.081991
0.0642812
0.0461788
0.0277232
0.00918464
0.488754
1.48506
2.53558
3.66572
4.87994
6.14672
7.38521
8.47254
9.29004
9.78808
9.98944
9.94338
9.70806
9.33902
8.87307
8.33611
7.74964
7.13065
6.50469
5.90497
5.3525
4.8499
4.39267
3.97665
3.59722
3.25196
2.94112
2.66455
2.42213
2.21258
2.02993
1.86492
1.71081
1.56522
1.4274
1.29755
1.17623
1.06305
0.957264
0.858287
0.765589
0.679735
0.60227
0.53403
0.474511
0.422675
0.377508
0.33801
0.303412
0.273216
0.246961
0.224258
0.204649
0.187265
0.170968
0.154904
0.138648
0.121938
0.104629
0.0866791
0.0680182
0.0488643
0.0293037
0.00968652
0.49974
1.52297
2.61592
3.8152
5.13527
6.54721
7.95476
9.19539
10.1047
10.6243
10.8007
10.701
10.3987
9.96379
9.43408
8.83423
8.18591
7.5013
6.80877
6.15351
5.56139
5.02976
4.54908
4.11366
3.71665
3.35491
3.02993
2.74171
2.49091
2.27767
2.09462
1.92873
1.77156
1.6216
1.47862
1.34342
1.21733
1.09978
0.989764
0.886609
0.789332
0.698701
0.617261
0.546308
0.484982
0.431853
0.385756
0.345484
0.310195
0.279467
0.252839
0.229998
0.210612
0.193672
0.177671
0.161597
0.145103
0.127953
0.110021
0.0913195
0.0717196
0.0514982
0.0308269
0.0101595
0.505064
1.54416
2.66976
3.93202
5.35958
6.93114
8.53551
9.95828
10.9681
11.4982
11.6361
11.4693
11.0879
10.5817
9.98573
9.32105
8.61096
7.85747
7.09151
6.37753
5.74808
5.19075
4.68887
4.23638
3.82323
3.44542
3.10691
2.80741
2.54857
2.3334
2.15278
1.98787
1.8281
1.67401
1.52594
1.38532
1.25479
1.13328
1.01936
0.912424
0.810601
0.714851
0.629329
0.555968
0.493223
0.439108
0.392382
0.351554
0.315695
0.284557
0.25764
0.234739
0.215786
0.199594
0.184096
0.168089
0.151419
0.133873
0.115344
0.0959384
0.0754076
0.0540797
0.0322795
0.0105964
0.50437
1.54733
2.69423
4.01104
5.54562
7.29177
9.12679
10.7694
11.8886
12.4114
12.4953
12.2464
11.7716
11.1904
10.5268
9.79558
9.02601
8.20054
7.35162
6.57505
5.91236
5.33375
4.81279
4.34596
3.91817
3.5242
3.17283
2.86221
2.59508
2.37986
2.20529
2.0434
1.88106
1.72294
1.56971
1.4234
1.28883
1.16382
1.04629
0.936101
0.829741
0.728274
0.638465
0.563107
0.499398
0.444585
0.397553
0.356376
0.320021
0.28859
0.261437
0.238492
0.220187
0.20512
0.190342
0.174427
0.157634
0.139726
0.120608
0.100563
0.0791091
0.056603
0.0336403
0.0109871
0.497453
1.5316
2.68693
4.0472
5.6853
7.62056
9.727
11.6398
12.8767
13.364
13.3771
13.0304
12.4446
11.7875
11.0565
10.2563
9.43303
8.53285
7.58728
6.74335
6.05426
5.46008
4.92152
4.4437
4.00286
3.59185
3.2285
2.90676
2.63019
2.41694
2.25322
2.0966
1.93094
1.76886
1.61032
1.4577
1.31965
1.19167
1.07071
0.958051
0.847161
0.739003
0.644589
0.567827
0.503694
0.448415
0.401439
0.360115
0.323266
0.291673
0.264306
0.24124
0.223811
0.210351
0.19652
0.180646
0.16378
0.145541
0.125812
0.105222
0.0828594
0.0590563
0.0348786
0.0113178
0.484273
1.49653
2.64609
4.03581
5.76975
7.90666
10.333
12.5839
13.9456
14.3534
14.2798
13.8198
13.0999
12.3706
11.5746
10.7007
9.83499
8.85814
7.79584
6.87869
6.17427
5.5717
5.01545
4.53107
4.07891
3.64867
3.27486
2.94189
2.6533
2.44422
2.29789
2.14898
1.97805
1.81219
1.64817
1.4881
1.34747
1.21714
1.0927
0.978751
0.863368
0.746991
0.647528
0.570254
0.506339
0.450705
0.404219
0.36295
0.3255
0.293921
0.266339
0.242936
0.22662
0.215415
0.202765
0.186757
0.169887
0.151344
0.130934
0.10995
0.0867071
0.0614193
0.0359519
0.0115712
0.464975
1.44225
2.57074
3.97285
5.78961
8.13647
10.939
13.6211
15.112
15.3723
15.2014
14.6138
13.7281
12.9383
12.0817
11.1244
10.2362
9.18213
7.97334
6.97596
6.27363
5.67144
5.09442
4.60975
4.14833
3.69448
3.31303
2.96879
2.66338
2.46082
2.34101
2.2024
2.02234
1.85336
1.68377
1.51424
1.37251
1.24061
1.11215
0.998763
0.879018
0.752074
0.646983
0.570554
0.507616
0.451512
0.406089
0.365084
0.326748
0.295466
0.267651
0.243486
0.228533
0.220475
0.209246
0.19273
0.175982
0.157173
0.135925
0.114789
0.0907217
0.0636593
0.0368039
0.0117259
0.439883
1.36945
2.46088
3.85529
5.73532
8.29321
11.5352
14.7776
16.3975
16.4063
16.1404
15.4144
14.3155
13.4904
12.5806
11.52
10.6428
9.51335
8.11385
7.02818
6.35482
5.76334
5.15717
4.68178
4.21367
3.72828
3.34439
2.98914
2.65881
2.46526
2.38484
2.25922
2.06316
1.89282
1.71781
1.5354
1.39509
1.26259
1.12866
1.01878
0.89498
0.753914
0.642499
0.568976
0.507892
0.450807
0.407265
0.366756
0.326966
0.296464
0.268401
0.242736
0.229408
0.225752
0.216175
0.198473
0.182098
0.16308
0.14069
0.119797
0.0950024
0.0657259
0.0373626
0.0117571
0.40949
1.27939
2.31754
3.68144
5.59772
8.35658
12.1053
16.0888
17.8305
17.4298
17.0965
16.2272
14.8426
14.0291
13.0768
11.8751
11.0635
9.86424
8.20855
7.026
6.4221
5.8531
5.20064
4.74976
4.27834
3.74778
3.37076
3.00546
2.63715
2.4552
2.43248
2.32246
2.09895
1.93114
1.7513
1.55032
1.41571
1.28378
1.14141
1.03968
0.912428
0.751926
0.63342
0.565895
0.507651
0.448419
0.408006
0.368263
0.325999
0.297109
0.268815
0.24046
0.229023
0.231545
0.223829
0.203795
0.188285
0.169148
0.145067
0.125051
0.0996916
0.0675414
0.0375386
0.0116369
0.374436
1.17383
2.14285
3.45129
5.36875
8.30272
12.6234
17.6018
19.4485
18.4007
18.0727
17.0639
15.2807
14.5603
13.58
12.1696
11.5106
10.2526
8.24441
6.95701
6.48242
5.94858
5.2189
4.81715
4.34701
3.74869
3.39464
3.02142
2.59489
2.42718
2.48813
2.39607
2.12674
1.96919
1.78576
1.55691
1.43511
1.30526
1.1489
1.06263
0.932957
0.745169
0.618844
0.561876
0.507534
0.443961
0.408637
0.369996
0.323529
0.297657
0.269219
0.236325
0.227041
0.238269
0.232574
0.20836
0.194626
0.175517
0.148792
0.130665
0.10499
0.0689871
0.037225
0.0113363
0.33547
1.05495
1.93993
3.16678
5.04234
8.1046
13.0492
19.3797
21.3018
19.2531
19.0783
17.946
15.5872
15.0957
14.1068
12.3718
12.0016
10.7032
8.20251
6.8051
6.54636
6.0606
5.2017
4.88883
4.42624
3.72372
3.41951
3.04231
2.52713
2.37621
2.55753
2.48521
2.1415
2.00831
1.82352
1.5519
1.45452
1.3286
1.14866
1.08916
0.958733
0.732211
0.597573
0.557754
0.508399
0.43671
0.40959
0.37248
0.318988
0.298451
0.270076
0.229875
0.222977
0.246487
0.242895
0.211614
0.201262
0.182405
0.151457
0.136802
0.111179
0.0698841
0.0362987
0.0108272
0.293415
0.925285
1.71288
2.83196
4.61548
7.73313
13.3224
21.5061
23.458
19.887
20.1325
18.9081
15.6998
15.6558
14.6827
12.4332
12.5608
11.2504
8.05577
6.54975
6.62946
6.20381
5.13246
4.97186
4.52521
3.66135
3.45035
3.07562
2.42712
2.29534
2.64842
2.59669
2.13525
2.05072
1.86802
1.53026
1.47584
1.35615
1.13679
1.12138
0.992673
0.710935
0.568065
0.554735
0.511385
0.425468
0.411467
0.376439
0.311461
0.299967
0.272039
0.220487
0.216151
0.256965
0.255442
0.212701
0.208436
0.190154
0.152442
0.143701
0.11864
0.0699659
0.0346256
0.010086
0.249127
0.787522
1.46647
2.45302
4.08936
7.15939
13.3543
24.0905
26.0083
20.1558
21.2705
20.0034
15.5277
16.2736
15.3462
12.2818
13.2227
11.9402
7.76617
6.16536
6.75361
6.39785
4.98572
5.07656
4.65673
3.54398
3.49433
3.13169
2.2858
2.17515
2.77113
2.73952
2.09595
2.09997
1.92428
1.48452
1.502
1.3913
1.1074
1.16222
1.03866
0.678313
0.528394
0.554501
0.518004
0.408359
0.41512
0.382873
0.299533
0.302868
0.276006
0.207333
0.205632
0.270728
0.271087
0.210336
0.216539
0.199275
0.150833
0.151715
0.127889
0.0688422
0.0320695
0.00909682
0.203449
0.644421
1.206
2.03809
3.47034
6.35808
13.0177
27.2749
29.0752
19.8495
22.5513
21.3103
14.941
16.9996
16.1535
11.8131
14.0355
12.8336
7.28119
5.62081
6.94865
6.66883
4.72389
5.21798
4.83853
3.3458
3.5617
3.22437
2.09123
2.00309
2.93921
2.92559
2.00602
2.16159
1.99943
1.40382
1.53738
1.43892
1.05191
1.21569
1.10178
0.630106
0.476227
0.559339
0.530247
0.382588
0.421767
0.393157
0.28112
0.308084
0.283181
0.18934
0.190172
0.289121
0.290989
0.20266
0.226191
0.21051
0.145318
0.16135
0.139605
0.0659513
0.0285082
0.00785671
0.157182
0.49866
0.936955
1.59691
2.7708
5.31295
12.134
31.2409
32.8231
18.6748
24.0677
22.9392
13.7568
17.9086
17.1839
10.8798
15.0659
14.0096
6.52968
4.87916
7.25403
7.05106
4.29318
5.4178
5.09469
3.02996
3.66703
3.37183
1.82791
1.76283
3.17016
3.17051
1.84053
2.24402
2.10334
1.27274
1.58837
1.50579
0.958133
1.28736
1.18858
0.560511
0.408821
0.572261
0.550721
0.34413
0.433134
0.409157
0.253236
0.316905
0.295138
0.165135
0.168134
0.313887
0.316691
0.187046
0.238325
0.224907
0.134048
0.173335
0.154669
0.0605017
0.023857
0.00637922
0.111054
0.352725
0.664709
1.14027
2.00936
4.02425
10.4585
36.2183
37.4707
16.2303
25.9586
25.0414
11.7229
19.1076
18.5463
9.27802
16.4056
15.5685
5.41693
3.8978
7.72033
7.58931
3.61883
5.70678
5.4574
2.54527
3.8308
3.59727
1.47612
1.43353
3.48614
3.49466
1.56509
2.35964
2.24935
1.0699
1.66406
1.60117
0.809172
1.38483
1.30738
0.461754
0.323057
0.597124
0.582809
0.28737
0.45164
0.433378
0.211725
0.331115
0.31389
0.132995
0.137409
0.347234
0.350223
0.159882
0.254305
0.243906
0.11448
0.188695
0.174197
0.0513996
0.0181036
0.00469795
0.065698
0.208822
0.394271
0.679264
1.21038
2.51869
7.66137
42.4932
43.3055
11.9782
28.4249
27.8183
8.49809
20.7454
20.3875
6.73268
18.1792
17.6351
3.81916
2.62913
8.41066
8.3414
2.59942
6.12762
5.96887
1.82227
4.08132
3.92955
1.01123
0.989107
3.91468
3.92446
1.13327
2.52614
2.45508
0.766278
1.77706
1.73747
0.582174
1.51841
1.46847
0.323612
0.215527
0.638727
0.630874
0.204672
0.480622
0.469112
0.150946
0.353148
0.34194
0.0908052
0.0953293
0.391909
0.394242
0.1163
0.27607
0.269427
0.0831837
0.208855
0.199581
0.037165
0.0113548
0.00286788
0.0216429
0.0688137
0.130039
0.224503
0.402405
0.862212
3.3082
50.4168
50.7021
5.21125
31.7475
31.5318
3.62967
23.0242
22.9
2.87958
20.5531
20.3615
1.57749
1.02182
9.40157
9.38131
1.10052
6.7385
6.68342
0.768754
4.45719
4.40371
0.40293
0.397477
4.48932
4.49383
0.483809
2.76813
2.74327
0.32332
1.94451
1.93088
0.246862
1.70191
1.68442
0.132898
0.0826639
0.70288
0.700486
0.0858949
0.524586
0.520619
0.0634061
0.386282
0.382326
0.0360066
0.0385787
0.451264
0.452182
0.0498768
0.306294
0.303984
0.0356263
0.235752
0.232523
0.0158352
0.00389677
0.000963543
)
;

boundaryField
{
    left
    {
        type            calculated;
        value           uniform 0;
    }
    right
    {
        type            calculated;
        value           uniform 0;
    }
    interface
    {
        type            calculated;
        value           nonuniform List<scalar> 
64
(
0.0216429
0.0688137
0.130039
0.224503
0.402405
0.862212
3.3082
50.4168
50.7021
5.21125
31.7475
31.5318
3.62967
23.0242
22.9
2.87958
20.5531
20.3615
1.57749
1.02182
9.40157
9.38131
1.10052
6.7385
6.68342
0.768754
4.45719
4.40371
0.40293
0.397477
4.48932
4.49383
0.483809
2.76813
2.74327
0.32332
1.94451
1.93088
0.246862
1.70191
1.68442
0.132898
0.0826639
0.70288
0.700486
0.0858949
0.524586
0.520619
0.0634061
0.386282
0.382326
0.0360066
0.0385787
0.451264
0.452182
0.0498768
0.306294
0.303984
0.0356263
0.235752
0.232523
0.0158352
0.00389677
0.000963543
)
;
    }
    bottom
    {
        type            calculated;
        value           nonuniform List<scalar> 
64
(
0.0217787
0.0650891
0.107639
0.148852
0.188075
0.224587
0.257633
0.286494
0.310554
0.32937
0.342717
0.350606
0.353268
0.351122
0.344727
0.334729
0.321817
0.306682
0.28998
0.272313
0.254205
0.236097
0.21834
0.201204
0.184881
0.1695
0.155132
0.141804
0.129509
0.118209
0.107848
0.0983569
0.0896609
0.0816855
0.0743609
0.0676246
0.0614227
0.0557096
0.0504478
0.0456064
0.0411597
0.037086
0.033366
0.029981
0.0269124
0.0241405
0.0216443
0.0194018
0.0173897
0.0155845
0.0139619
0.0124981
0.0111697
0.0099541
0.00883021
0.00777869
0.00678247
0.00582693
0.00490004
0.00399232
0.00309665
0.00220801
0.00132328
0.000440803
)
;
    }
    defaultFaces
    {
        type            empty;
    }
}


// ************************************************************************* //
