/*--------------------------------*- C++ -*----------------------------------*\
| =========                 |                                                 |
| \\      /  F ield         | OpenFOAM: The Open Source CFD Toolbox           |
|  \\    /   O peration     | Version:  5.x                                   |
|   \\  /    A nd           | Web:      www.OpenFOAM.org                      |
|    \\/     M anipulation  |                                                 |
\*---------------------------------------------------------------------------*/
FoamFile
{
    version     2.0;
    format      ascii;
    class       volScalarField;
    location    "4.9";
    object      gradTy;
}
// * * * * * * * * * * * * * * * * * * * * * * * * * * * * * * * * * * * * * //

dimensions      [0 -1 0 1 0 0 0];

internalField   nonuniform List<scalar> 
2048
(
-20.3794
-20.2845
-20.0956
-19.815
-19.4463
-18.9944
-18.4662
-17.8699
-17.2156
-16.5143
-15.7779
-15.0185
-14.248
-13.4774
-12.7168
-11.9746
-11.2581
-10.5728
-9.92267
-9.31052
-8.73776
-8.20478
-7.71111
-7.25562
-6.83667
-6.45229
-6.10031
-5.77846
-5.48444
-5.21604
-4.97112
-4.74772
-4.54402
-4.35838
-4.1893
-4.03546
-3.89564
-3.76874
-3.65373
-3.54969
-3.45572
-3.37099
-3.29472
-3.22617
-3.1646
-3.10938
-3.05985
-3.01546
-2.97567
-2.94001
-2.90805
-2.87942
-2.85381
-2.83094
-2.8106
-2.7926
-2.77681
-2.76313
-2.75149
-2.74184
-2.73414
-2.72837
-2.72454
-2.72262
-20.4562
-20.3604
-20.1697
-19.8863
-19.5135
-19.0562
-18.5212
-17.9169
-17.2535
-16.5426
-15.7964
-15.0275
-14.248
-13.4694
-12.7018
-11.9539
-11.2328
-10.5442
-9.8919
-9.27858
-8.7055
-8.1729
-7.68015
-7.22597
-6.8086
-6.42598
-6.07584
-5.75583
-5.46362
-5.19693
-4.95361
-4.73167
-4.5293
-4.34485
-4.17686
-4.024
-3.88507
-3.75899
-3.64474
-3.54141
-3.44811
-3.36403
-3.28836
-3.22038
-3.15936
-3.10463
-3.05558
-3.01161
-2.9722
-2.93689
-2.90523
-2.87686
-2.85146
-2.82877
-2.80857
-2.79068
-2.77498
-2.76136
-2.74976
-2.74013
-2.73245
-2.72669
-2.72286
-2.72094
-20.6021
-20.5048
-20.3108
-20.0221
-19.6416
-19.1741
-18.6261
-18.0065
-17.3258
-16.5964
-15.8313
-15.044
-14.2473
-13.4533
-12.6724
-11.9136
-11.1841
-10.4892
-9.83295
-9.21752
-8.64395
-8.11217
-7.62126
-7.16966
-6.75538
-6.37615
-6.02953
-5.71306
-5.42428
-5.16085
-4.92056
-4.7014
-4.50154
-4.31936
-4.1534
-4.00238
-3.86513
-3.74058
-3.62777
-3.52578
-3.43375
-3.35087
-3.27635
-3.20945
-3.14945
-3.09568
-3.04751
-3.00435
-2.96568
-2.93101
-2.89992
-2.87204
-2.84705
-2.8247
-2.80476
-2.78708
-2.77153
-2.75802
-2.74649
-2.7369
-2.72925
-2.72351
-2.71968
-2.71777
-20.809
-20.7096
-20.5113
-20.2154
-19.8243
-19.3424
-18.776
-18.1343
-17.4286
-16.6724
-15.88
-15.0662
-14.2449
-13.4288
-12.6291
-11.8549
-11.1134
-10.41
-9.74827
-9.1301
-8.5561
-8.02575
-7.53767
-7.08991
-6.68015
-6.30583
-5.9643
-5.65289
-5.36903
-5.11023
-4.87424
-4.65899
-4.46265
-4.28363
-4.12052
-3.97207
-3.83715
-3.71476
-3.60394
-3.50383
-3.41358
-3.33239
-3.25948
-3.19411
-3.13556
-3.08314
-3.03622
-2.9942
-2.95655
-2.9228
-2.8925
-2.86531
-2.8409
-2.81901
-2.79945
-2.78205
-2.7667
-2.75334
-2.7419
-2.73238
-2.72476
-2.71903
-2.71521
-2.71331
-21.0697
-20.968
-20.7648
-20.4604
-20.0565
-19.5566
-18.9669
-18.2969
-17.5589
-16.7679
-15.9402
-15.0922
-14.2392
-13.3951
-12.5715
-11.778
-11.0217
-10.3079
-9.63967
-9.01852
-8.44444
-7.91629
-7.43215
-6.98953
-6.5857
-6.21775
-5.88276
-5.57784
-5.30023
-5.04731
-4.81672
-4.60636
-4.41441
-4.23931
-4.0797
-3.93441
-3.80237
-3.68263
-3.57429
-3.4765
-3.38845
-3.30937
-3.23848
-3.17503
-3.11829
-3.06757
-3.02221
-2.98162
-2.94526
-2.91265
-2.88335
-2.85701
-2.83331
-2.812
-2.79289
-2.77583
-2.76073
-2.74754
-2.73621
-2.72675
-2.71916
-2.71345
-2.70963
-2.70773
-21.3778
-21.2739
-21.0656
-20.7523
-20.3341
-19.8134
-19.196
-18.4916
-17.7141
-16.8805
-16.0096
-15.1198
-14.2286
-13.3509
-12.4991
-11.6829
-10.9095
-10.1838
-9.50857
-8.88455
-8.31104
-7.78612
-7.30715
-6.87103
-6.47454
-6.11437
-5.7873
-5.49019
-5.22005
-4.97412
-4.74991
-4.54528
-4.35843
-4.18786
-4.03229
-3.89063
-3.76191
-3.64522
-3.53972
-3.44462
-3.35914
-3.28252
-3.21399
-3.1528
-3.0982
-3.04947
-3.00596
-2.96705
-2.9322
-2.90092
-2.8728
-2.84745
-2.82458
-2.80393
-2.78534
-2.76866
-2.75383
-2.74081
-2.72959
-2.72019
-2.71262
-2.70692
-2.7031
-2.7012
-21.7274
-21.6217
-21.4089
-21.0868
-20.6536
-20.1101
-19.4609
-18.7164
-17.8921
-17.0079
-16.0858
-15.1471
-14.2114
-13.295
-12.411
-11.5693
-10.777
-10.0385
-9.35607
-8.72969
-8.15771
-7.63729
-7.16488
-6.7367
-6.34895
-5.99793
-5.68009
-5.39201
-5.13049
-4.89254
-4.67557
-4.47738
-4.2962
-4.13062
-3.97949
-3.84183
-3.71675
-3.60343
-3.50108
-3.40896
-3.32633
-3.25247
-3.1866
-3.12796
-3.07578
-3.02932
-2.98789
-2.95088
-2.91773
-2.88796
-2.86114
-2.8369
-2.81495
-2.79504
-2.77701
-2.76074
-2.74618
-2.73334
-2.72221
-2.71285
-2.7053
-2.69959
-2.69576
-2.69386
-22.1128
-22.006
-21.79
-21.4603
-21.0125
-20.4447
-19.7604
-18.9699
-18.0912
-17.1481
-16.1666
-15.1718
-14.1856
-13.2259
-12.3064
-11.4369
-10.6242
-9.87247
-9.1831
-8.55525
-7.98613
-7.47168
-7.00737
-6.58861
-6.21101
-5.87046
-5.56309
-5.28521
-5.03335
-4.80431
-4.59532
-4.40413
-4.22906
-4.06881
-3.92241
-3.78899
-3.6678
-3.55807
-3.45909
-3.37018
-3.29064
-3.21977
-3.15683
-3.101
-3.05149
-3.00752
-2.96839
-2.93346
-2.90217
-2.87404
-2.84865
-2.82563
-2.80468
-2.78555
-2.7681
-2.75225
-2.73796
-2.72527
-2.71422
-2.70488
-2.69732
-2.69159
-2.68774
-2.68583
-22.5285
-22.422
-22.2047
-21.8696
-21.4086
-20.8163
-20.0936
-19.2511
-18.3101
-17.2992
-16.2499
-15.1916
-14.1493
-13.1421
-12.1841
-11.2851
-10.4512
-9.68608
-8.99047
-8.36245
-7.79781
-7.2911
-6.83655
-6.42872
-6.06264
-5.73382
-5.43808
-5.17149
-4.93028
-4.71098
-4.51061
-4.32688
-4.1582
-4.0035
-3.86199
-3.73298
-3.61583
-3.50985
-3.41441
-3.32886
-3.25259
-3.18493
-3.12512
-3.07234
-3.02573
-2.98446
-2.9478
-2.9151
-2.88581
-2.85945
-2.83559
-2.81386
-2.79396
-2.77566
-2.7588
-2.74335
-2.72931
-2.71675
-2.70575
-2.6964
-2.6888
-2.68304
-2.67915
-2.67722
-22.9692
-22.8645
-22.649
-22.3119
-21.8405
-21.2242
-20.4605
-19.5599
-18.5476
-17.4592
-16.3331
-15.2041
-14.1003
-13.0421
-12.0435
-11.1135
-10.258
-9.47973
-8.77892
-8.15241
-7.59427
-7.09726
-6.65425
-6.25888
-5.90563
-5.5897
-5.30669
-5.0524
-4.82277
-4.61399
-4.42279
-4.24684
-4.08471
-3.93564
-3.79908
-3.67456
-3.56153
-3.45941
-3.3676
-3.28553
-3.21265
-3.14835
-3.09189
-3.04237
-2.99886
-2.96047
-2.92643
-2.8961
-2.86891
-2.8444
-2.82215
-2.80178
-2.78299
-2.76553
-2.74927
-2.7342
-2.72037
-2.7079
-2.6969
-2.68751
-2.67985
-2.67402
-2.67009
-2.66814
-23.4294
-23.3286
-23.1187
-22.7845
-22.307
-21.6687
-20.8619
-19.8964
-18.8028
-17.6261
-16.4138
-15.2068
-14.0367
-12.9246
-11.8836
-10.922
-10.0446
-9.25377
-8.54913
-7.92626
-7.37699
-6.89187
-6.46225
-6.08083
-5.74161
-5.43964
-5.17035
-4.92933
-4.71219
-4.51466
-4.33311
-4.1651
-4.00954
-3.86603
-3.73439
-3.61436
-3.50551
-3.40729
-3.31916
-3.24062
-3.17121
-3.11041
-3.05747
-3.01141
-2.97119
-2.93584
-2.90456
-2.87669
-2.85169
-2.82911
-2.80853
-2.78959
-2.77194
-2.75533
-2.73964
-2.72491
-2.71125
-2.69882
-2.68778
-2.6783
-2.67053
-2.66463
-2.66063
-2.65867
-23.9037
-23.8094
-23.61
-23.2849
-22.8073
-22.1505
-21.2992
-20.2615
-19.0749
-17.7978
-16.4892
-15.197
-13.9563
-12.7881
-11.7039
-10.7104
-9.81132
-9.00853
-8.30174
-7.68508
-7.14747
-6.67664
-6.26229
-5.89623
-5.57212
-5.28502
-5.03036
-4.8035
-4.59973
-4.41421
-4.24268
-4.08265
-3.9335
-3.7954
-3.66853
-3.55294
-3.44827
-3.35396
-3.26953
-3.19452
-3.1286
-3.07139
-3.02216
-2.97977
-2.94301
-2.91085
-2.88242
-2.85708
-2.83433
-2.81373
-2.79489
-2.77742
-2.76095
-2.74519
-2.73005
-2.71561
-2.70205
-2.6896
-2.67846
-2.66885
-2.66094
-2.65492
-2.65085
-2.64887
-24.3864
-24.3017
-24.1187
-23.8106
-23.3411
-22.6713
-21.7749
-20.6564
-19.3631
-17.9719
-16.5562
-15.1718
-13.8571
-12.6317
-11.504
-10.4789
-9.55845
-8.74435
-8.03728
-7.42998
-6.90729
-6.4533
-6.05608
-5.70668
-5.39852
-5.12707
-4.88783
-4.67596
-4.48648
-4.31374
-4.15258
-4.00038
-3.85731
-3.7243
-3.602
-3.49077
-3.39026
-3.29985
-3.21908
-3.14756
-3.0851
-3.03155
-2.98621
-2.9477
-2.91459
-2.88572
-2.86023
-2.83747
-2.817
-2.79843
-2.78135
-2.7654
-2.75015
-2.73525
-2.72059
-2.70637
-2.69285
-2.68031
-2.66902
-2.65922
-2.65112
-2.64498
-2.64082
-2.63883
-24.8721
-24.8004
-24.6404
-24.3589
-23.908
-23.2333
-22.2924
-21.0833
-19.6663
-18.1452
-16.6115
-15.1281
-13.737
-12.4545
-11.2838
-10.2279
-9.28659
-8.46146
-7.75619
-7.16208
-6.65814
-6.22362
-5.84531
-5.51369
-5.22208
-4.96686
-4.74374
-4.54761
-4.37339
-4.21433
-4.06381
-3.91905
-3.78155
-3.65323
-3.5352
-3.42822
-3.33188
-3.24532
-3.16816
-3.10004
-3.04092
-2.99108
-2.94983
-2.91545
-2.88614
-2.86068
-2.83818
-2.81801
-2.79984
-2.7833
-2.76803
-2.75366
-2.73967
-2.7256
-2.71136
-2.69727
-2.68372
-2.67102
-2.65951
-2.64947
-2.64114
-2.63483
-2.63059
-2.62859
-25.3552
-25.3002
-25.1709
-24.927
-24.5079
-23.8394
-22.8564
-21.5452
-19.9831
-18.3143
-16.6515
-15.0626
-13.5941
-12.2562
-11.0436
-9.9582
-8.99656
-8.15997
-7.45865
-6.88256
-6.40188
-5.98939
-5.63162
-5.31873
-5.0439
-4.80531
-4.59891
-4.41916
-4.26126
-4.11698
-3.97736
-3.83933
-3.70667
-3.58254
-3.4684
-3.3656
-3.27345
-3.19069
-3.11707
-3.0522
-2.99621
-2.9501
-2.91322
-2.88323
-2.85788
-2.83591
-2.81643
-2.79883
-2.78294
-2.76846
-2.75501
-2.74227
-2.72962
-2.71637
-2.70244
-2.68839
-2.6747
-2.66176
-2.64998
-2.63965
-2.63101
-2.62452
-2.6202
-2.61821
-25.8302
-25.7958
-25.7053
-25.5117
-25.1405
-24.4931
-23.473
-22.0461
-20.3112
-18.4748
-16.6724
-14.9715
-13.4266
-12.037
-10.7839
-9.67104
-8.68965
-7.83971
-7.14453
-6.59267
-6.14065
-5.75241
-5.41661
-5.12324
-4.8649
-4.64317
-4.45406
-4.29112
-4.15076
-4.02273
-3.89425
-3.76178
-3.63299
-3.51252
-3.40181
-3.30314
-3.21531
-3.13623
-3.0661
-3.0043
-2.95108
-2.90868
-2.87652
-2.85127
-2.82999
-2.81158
-2.79513
-2.78003
-2.76639
-2.75396
-2.74233
-2.7313
-2.72008
-2.70765
-2.69389
-2.67975
-2.66586
-2.65259
-2.64048
-2.6298
-2.62079
-2.61409
-2.6097
-2.60776
-26.292
-26.282
-26.2387
-26.1093
-25.805
-25.1985
-24.1502
-22.5913
-20.647
-18.621
-16.6705
-14.8509
-13.2329
-11.7979
-10.5052
-9.368
-8.36769
-7.50004
-6.8132
-6.29384
-5.87697
-5.51439
-5.20178
-4.92866
-4.68577
-4.48103
-4.30984
-4.16376
-4.04237
-3.93262
-3.81556
-3.68677
-3.56069
-3.44342
-3.33547
-3.24102
-3.15777
-3.08217
-3.0155
-2.95659
-2.90553
-2.86682
-2.83989
-2.81981
-2.80266
-2.78785
-2.77443
-2.76168
-2.75026
-2.73989
-2.73003
-2.72081
-2.71119
-2.69956
-2.68574
-2.67138
-2.65722
-2.64352
-2.63104
-2.61998
-2.61048
-2.60354
-2.59913
-2.59729
-26.7357
-26.7537
-26.7659
-26.7154
-26.5002
-25.9602
-24.8984
-23.1886
-20.9845
-18.7461
-16.6429
-14.6958
-13.0116
-11.541
-10.208
-9.05111
-8.03353
-7.13956
-6.4633
-5.98778
-5.61401
-5.27685
-4.98848
-4.73655
-4.50691
-4.31931
-4.16691
-4.03707
-3.93639
-3.84783
-3.74257
-3.61446
-3.48979
-3.37544
-3.26934
-3.17936
-3.10119
-3.02867
-2.96553
-2.90936
-2.8595
-2.82442
-2.80347
-2.78909
-2.77601
-2.76483
-2.75445
-2.74384
-2.7346
-2.72628
-2.7181
-2.71083
-2.70303
-2.6922
-2.67803
-2.66331
-2.64883
-2.63457
-2.62169
-2.61023
-2.6001
-2.59289
-2.58853
-2.58685
-27.1567
-27.206
-27.2814
-27.3249
-27.2237
-26.7828
-25.7305
-23.8488
-21.3136
-18.8415
-16.5883
-14.5003
-12.7614
-11.2704
-9.89194
-8.72286
-7.69153
-6.75558
-6.09253
-5.67665
-5.35582
-5.04084
-4.7779
-4.54875
-4.32826
-4.15829
-4.02612
-3.91063
-3.83284
-3.76971
-3.67683
-3.54466
-3.42011
-3.30892
-3.20318
-3.11824
-3.04603
-2.97578
-2.91646
-2.86303
-2.8128
-2.78131
-2.76742
-2.75944
-2.75017
-2.74265
-2.73536
-2.7265
-2.71942
-2.71322
-2.7065
-2.70135
-2.69575
-2.68575
-2.67072
-2.65553
-2.64074
-2.62573
-2.61248
-2.60062
-2.58965
-2.58213
-2.57794
-2.57652
-27.5513
-27.6343
-27.7797
-27.9318
-27.9717
-27.6702
-26.6627
-24.5875
-21.6183
-18.8969
-16.5088
-14.2558
-12.4813
-10.9929
-9.55523
-8.38615
-7.34855
-6.34347
-5.69725
-5.36334
-5.1078
-4.80656
-4.57091
-4.36766
-4.14909
-3.99805
-3.88869
-3.78352
-3.73139
-3.69985
-3.6204
-3.47667
-3.35126
-3.24437
-3.13647
-3.05767
-2.99292
-2.9234
-2.86854
-2.81816
-2.76504
-2.73717
-2.73196
-2.73128
-2.72514
-2.72138
-2.71735
-2.70961
-2.70475
-2.70081
-2.69514
-2.69234
-2.6895
-2.68038
-2.66375
-2.648
-2.63302
-2.61697
-2.60344
-2.59125
-2.5791
-2.57125
-2.5674
-2.56636
-27.9162
-28.0346
-28.2553
-28.5293
-28.7387
-28.6253
-27.7149
-25.4283
-21.873
-18.8999
-16.4121
-13.9502
-12.1703
-10.7195
-9.19285
-8.04423
-7.01536
-5.89542
-5.27226
-5.05179
-4.87733
-4.57265
-4.36808
-4.1967
-3.96761
-3.83853
-3.75657
-3.65401
-3.63129
-3.64022
-3.57606
-3.40892
-3.28265
-3.18276
-3.06832
-2.99763
-2.94282
-2.8711
-2.82204
-2.77565
-2.71557
-2.69155
-2.69735
-2.70516
-2.70086
-2.70109
-2.70068
-2.69303
-2.69059
-2.68919
-2.68386
-2.68374
-2.68446
-2.67638
-2.65696
-2.64069
-2.62581
-2.60821
-2.5946
-2.58228
-2.56839
-2.5602
-2.55695
-2.55646
-28.2488
-28.4035
-28.7029
-29.1098
-29.5169
-29.6487
-28.9105
-26.4064
-22.0374
-18.8361
-16.3155
-13.5642
-11.8275
-10.4681
-8.79445
-7.70065
-6.70886
-5.39873
-4.81045
-4.74736
-4.67466
-4.33528
-4.16954
-4.04104
-3.78037
-3.67949
-3.633
-3.51922
-3.53125
-3.59324
-3.54778
-3.33859
-3.21344
-3.12581
-2.99717
-2.93804
-2.89723
-2.81801
-2.77721
-2.73686
-2.66334
-2.64384
-2.66399
-2.68185
-2.67704
-2.68179
-2.68575
-2.67648
-2.67691
-2.67863
-2.67237
-2.67542
-2.68088
-2.67413
-2.65006
-2.63353
-2.61931
-2.5993
-2.58599
-2.5739
-2.55743
-2.54893
-2.54665
-2.54691
-28.5474
-28.7381
-29.1174
-29.6651
-30.2961
-30.7373
-30.2761
-27.5758
-22.0488
-18.6896
-16.2513
-13.068
-11.4521
-10.2665
-8.34083
-7.35914
-6.45524
-4.8332
-4.30279
-4.45728
-4.51416
-4.08661
-3.97501
-3.90868
-3.58133
-3.52057
-3.5232
-3.37458
-3.42936
-3.56181
-3.54128
-3.26087
-3.14257
-3.07647
-2.92045
-2.87877
-2.85844
-2.76246
-2.7343
-2.70392
-2.60664
-2.59326
-2.63239
-2.66242
-2.6531
-2.66345
-2.67315
-2.65947
-2.66371
-2.66957
-2.66024
-2.66719
-2.67901
-2.67418
-2.64255
-2.62641
-2.61384
-2.58996
-2.57764
-2.56644
-2.54601
-2.53735
-2.53655
-2.53778
-28.8109
-29.0363
-29.4945
-30.1868
-31.0635
-31.8827
-31.8398
-29.0181
-21.8122
-18.4437
-16.2745
-12.4138
-11.0435
-10.1581
-7.79902
-7.02351
-6.29453
-4.16726
-3.73855
-4.19092
-4.41607
-3.81274
-3.7838
-3.81191
-3.36051
-3.36132
-3.43545
-3.213
-3.32305
-3.54936
-3.56488
-3.16808
-3.06883
-3.03957
-2.83403
-2.81967
-2.83001
-2.70162
-2.69356
-2.68009
-2.54284
-2.53889
-2.60323
-2.64838
-2.628
-2.64604
-2.6638
-2.6412
-2.65092
-2.66266
-2.64683
-2.6588
-2.67918
-2.67733
-2.63363
-2.61923
-2.60994
-2.57974
-2.56958
-2.56038
-2.5338
-2.52538
-2.52672
-2.52919
-29.0391
-29.2971
-29.8304
-30.6664
-31.8039
-33.0694
-33.6279
-30.8568
-21.1846
-18.0822
-16.4727
-11.5275
-10.6015
-10.2082
-7.11523
-6.69757
-6.28685
-3.35246
-3.10627
-3.95991
-4.40899
-3.49085
-3.59496
-3.76951
-3.10207
-3.20132
-3.38252
-3.0237
-3.20922
-3.55963
-3.63067
-3.04827
-2.99098
-3.0227
-2.73141
-2.76058
-2.81734
-2.63089
-2.65519
-2.67026
-2.4679
-2.47974
-2.57738
-2.64184
-2.60001
-2.62944
-2.65912
-2.62037
-2.63852
-2.65897
-2.63112
-2.64992
-2.68171
-2.68475
-2.62208
-2.61186
-2.60842
-2.5679
-2.56181
-2.55641
-2.52029
-2.5129
-2.51723
-2.52122
-29.2325
-29.5198
-30.1226
-31.096
-32.4999
-34.2732
-35.6589
-33.2762
-19.956
-17.5928
-16.9807
-10.295
-10.1274
-10.5141
-6.2054
-6.38512
-6.52073
-2.31578
-2.39569
-3.77772
-4.53313
-3.08534
-3.4076
-3.80947
-2.78157
-3.04041
-3.38351
-2.79057
-3.08453
-3.59633
-3.75619
-2.88351
-2.90797
-3.03744
-2.60261
-2.70141
-2.82849
-2.54312
-2.61939
-2.68166
-2.37573
-2.41492
-2.55585
-2.64578
-2.56646
-2.61356
-2.66119
-2.59503
-2.62644
-2.66007
-2.61164
-2.6402
-2.6869
-2.69816
-2.60603
-2.60416
-2.61053
-2.55328
-2.55432
-2.55555
-2.50464
-2.49983
-2.50819
-2.51397
-29.3919
-29.705
-30.3693
-31.4691
-33.1334
-35.4594
-37.9338
-36.5481
-17.822
-16.9701
-17.9972
-8.5456
-9.62503
-11.2172
-4.94257
-6.09012
-7.12411
-0.949081
-1.60129
-3.65846
-4.8448
-2.54273
-3.22139
-3.97279
-2.36247
-2.87906
-3.46633
-2.48995
-2.94611
-3.66241
-3.96668
-2.64743
-2.8193
-3.10086
-2.43272
-2.64231
-2.87523
-2.42752
-2.58636
-2.72476
-2.25735
-2.34394
-2.5397
-2.66434
-2.52329
-2.5983
-2.67312
-2.56224
-2.61467
-2.66828
-2.58626
-2.62928
-2.69497
-2.72002
-2.58276
-2.59605
-2.6181
-2.53417
-2.54713
-2.55925
-2.48562
-2.48614
-2.49972
-2.5075
-29.5191
-29.8536
-30.57
-31.7803
-33.6861
-36.5829
-40.422
-41.066
-14.3501
-16.2227
-19.8076
-6.02936
-9.10293
-12.5193
-3.14079
-5.81703
-8.27817
0.904776
-0.727941
-3.61441
-5.42231
-1.78527
-3.03735
-4.31799
-1.79139
-2.71896
-3.67063
-2.08769
-2.79269
-3.7588
-4.298
-2.30226
-2.72557
-3.23746
-2.19992
-2.58382
-2.97434
-2.26837
-2.55635
-2.81441
-2.0997
-2.26716
-2.52992
-2.70333
-2.46466
-2.58366
-2.69932
-2.51775
-2.60325
-2.68692
-2.5519
-2.61694
-2.7059
-2.75387
-2.5484
-2.58752
-2.63375
-2.50808
-2.54026
-2.5696
-2.46143
-2.47192
-2.49198
-2.50188
-29.6161
-29.9675
-30.7256
-32.0267
-34.1419
-37.5891
-43.0398
-47.3909
-8.93578
-15.3807
-22.8099
-2.38874
-8.57784
-14.7014
-0.534993
-5.57155
-10.2346
3.47
0.200604
-3.65177
-6.37356
-0.702888
-2.85906
-4.9269
-0.992252
-2.56387
-4.05156
-1.53534
-2.62652
-3.88252
-4.80051
-1.79493
-2.62921
-3.48145
-1.8731
-2.52725
-3.14933
-2.0433
-2.52974
-2.9713
-1.88421
-2.18653
-2.52704
-2.7707
-2.38231
-2.56978
-2.74604
-2.45555
-2.59236
-2.72066
-2.5043
-2.60328
-2.71929
-2.80471
-2.49752
-2.57873
-2.66121
-2.47147
-2.53379
-2.58947
-2.42949
-2.45752
-2.48515
-2.49719
-29.685
-30.0488
-30.8377
-32.2073
-34.4882
-38.4174
-45.622
-56.3078
-0.749303
-14.5071
-27.5465
2.87568
-8.07926
-18.1474
3.24337
-5.36174
-13.3361
7.06054
1.1296
-3.76404
-7.84574
0.85654
-2.69421
-5.91131
0.140905
-2.42093
-4.68403
-0.765325
-2.45611
-4.02384
-5.54393
-1.05241
-2.53558
-3.87953
-1.40888
-2.47513
-3.43236
-1.72127
-2.50718
-3.22364
-1.58492
-2.10659
-2.53073
-2.87738
-2.26486
-2.55714
-2.82188
-2.36731
-2.58238
-2.7759
-2.43752
-2.58891
-2.73407
-2.87951
-2.42272
-2.57011
-2.70559
-2.41946
-2.52792
-2.62282
-2.38621
-2.44365
-2.47949
-2.49347
-29.7285
-30.1003
-30.909
-32.3237
-34.7176
-39.0087
-47.8843
-68.8952
11.3284
-13.713
-34.7399
10.446
-7.65583
-23.3712
8.69491
-5.19964
-18.0413
12.1078
1.95692
-3.92241
-10.0374
3.09876
-2.55671
-7.42087
1.75248
-2.30227
-5.66775
0.314887
-2.30013
-4.16245
-6.62333
0.0239068
-2.45429
-4.49396
-0.748118
-2.43181
-3.8665
-1.26022
-2.48979
-3.60925
-1.16624
-2.03584
-2.53902
-3.03813
-2.09703
-2.54664
-2.93842
-2.24183
-2.57407
-2.86126
-2.34357
-2.57545
-2.74817
-2.9879
-2.31409
-2.5625
-2.77379
-2.34547
-2.52305
-2.67498
-2.32669
-2.43166
-2.47528
-2.49082
-29.749
-30.1247
-30.9431
-32.3796
-34.83
-39.3163
-49.3752
-86.6082
28.7808
-13.1754
-45.3317
21.2336
-7.38361
-31.0461
16.4849
-5.10365
-24.9517
19.1937
2.51159
-4.06256
-13.2129
6.29636
-2.46938
-9.65179
4.03505
-2.22731
-7.13288
1.82972
-2.19264
-4.26239
-8.16645
1.56465
-2.40105
-5.40616
0.187962
-2.40443
-4.50848
-0.604475
-2.47951
-4.17799
-0.58034
-1.98868
-2.54751
-3.27282
-1.85875
-2.54002
-3.1111
-2.06434
-2.56884
-2.98821
-2.21189
-2.56601
-2.75817
-3.14297
-2.15869
-2.55748
-2.87506
-2.24095
-2.52
-2.75312
-2.24451
-2.42384
-2.47297
-2.48946
)
;

boundaryField
{
    left
    {
        type            calculated;
        value           nonuniform List<scalar> 
32
(
-20.3794
-20.4562
-20.6021
-20.809
-21.0697
-21.3778
-21.7274
-22.1128
-22.5285
-22.9692
-23.4294
-23.9037
-24.3864
-24.8721
-25.3552
-25.8302
-26.292
-26.7357
-27.1567
-27.5513
-27.9162
-28.2488
-28.5474
-28.8109
-29.0391
-29.2325
-29.3919
-29.5191
-29.6161
-29.685
-29.7285
-29.749
)
;
    }
    right
    {
        type            calculated;
        value           nonuniform List<scalar> 
32
(
-2.72262
-2.72094
-2.71777
-2.71331
-2.70773
-2.7012
-2.69386
-2.68583
-2.67722
-2.66814
-2.65867
-2.64887
-2.63883
-2.62859
-2.61821
-2.60776
-2.59729
-2.58685
-2.57652
-2.56636
-2.55646
-2.54691
-2.53778
-2.52919
-2.52122
-2.51397
-2.5075
-2.50188
-2.49719
-2.49347
-2.49082
-2.48946
)
;
    }
    interface
    {
        type            calculated;
        value           nonuniform List<scalar> 
64
(
-29.754
-30.1305
-30.9513
-32.3931
-34.8574
-39.3946
-49.8591
-96.9543
39.0614
-12.9977
-51.6099
27.5615
-7.29682
-35.5915
21.0589
-5.07494
-29.0433
23.3295
2.69434
-4.11736
-15.0844
8.17271
-2.44176
-10.9753
5.3715
-2.20372
-8.00416
2.71357
-2.15644
-4.29705
-9.0722
2.46966
-2.38385
-5.94819
0.736035
-2.39583
-4.88945
-0.220031
-2.47646
-4.51521
-0.238762
-1.97323
-2.55108
-3.4115
-1.71918
-2.53796
-3.21368
-1.96052
-2.56721
-3.06373
-2.13513
-2.56282
-2.76162
-3.23406
-2.06747
-2.55587
-2.93528
-2.17985
-2.51907
-2.79972
-2.19685
-2.42134
-2.47237
-2.48914
)
;
    }
    bottom
    {
        type            calculated;
        value           nonuniform List<scalar> 
64
(
-20.3594
-20.2647
-20.0763
-19.7965
-19.4288
-18.9784
-18.4519
-17.8577
-17.2057
-16.5069
-15.773
-15.0161
-14.248
-13.4795
-12.7207
-11.98
-11.2647
-10.5802
-9.93066
-9.31882
-8.74615
-8.21309
-7.71919
-7.26335
-6.84399
-6.45916
-6.1067
-5.78437
-5.48989
-5.22104
-4.9757
-4.75192
-4.54787
-4.36192
-4.19256
-4.03846
-3.89841
-3.77129
-3.65608
-3.55185
-3.4577
-3.37281
-3.29639
-3.22768
-3.16598
-3.11062
-3.06097
-3.01647
-2.97658
-2.94083
-2.90879
-2.8801
-2.85443
-2.83151
-2.81113
-2.7931
-2.77729
-2.7636
-2.75195
-2.74228
-2.73458
-2.72881
-2.72498
-2.72306
)
;
    }
    defaultFaces
    {
        type            empty;
    }
}


// ************************************************************************* //
