/*--------------------------------*- C++ -*----------------------------------*\
| =========                 |                                                 |
| \\      /  F ield         | OpenFOAM: The Open Source CFD Toolbox           |
|  \\    /   O peration     | Version:  5.x                                   |
|   \\  /    A nd           | Web:      www.OpenFOAM.org                      |
|    \\/     M anipulation  |                                                 |
\*---------------------------------------------------------------------------*/
FoamFile
{
    version     2.0;
    format      ascii;
    class       volScalarField;
    location    "10.4";
    object      gradTx;
}
// * * * * * * * * * * * * * * * * * * * * * * * * * * * * * * * * * * * * * //

dimensions      [0 -1 0 1 0 0 0];

internalField   nonuniform List<scalar> 
2048
(
0.0222149
0.0663978
0.109818
0.151897
0.191978
0.229333
0.2632
0.29285
0.317661
0.337182
0.351183
0.359669
0.362872
0.361211
0.355246
0.345631
0.333059
0.318227
0.301801
0.284387
0.266516
0.248635
0.231096
0.214172
0.198053
0.182863
0.168671
0.155497
0.143322
0.132101
0.121767
0.112238
0.10343
0.0952619
0.0876577
0.0805527
0.0738942
0.0676406
0.0617614
0.056235
0.0510471
0.0461885
0.0416529
0.0374347
0.0335278
0.0299241
0.0266136
0.0235839
0.0208209
0.0183091
0.0160324
0.0139741
0.0121173
0.0104452
0.00894124
0.00758916
0.006373
0.00527708
0.00428589
0.00338389
0.00255536
0.00178429
0.00105431
0.000348761
0.0658772
0.196921
0.325759
0.450701
0.569794
0.680853
0.781575
0.869746
0.943467
1.00137
1.04275
1.06765
1.07677
1.07139
1.05322
1.02422
0.98648
0.942083
0.89302
0.8411
0.787903
0.734746
0.682675
0.632483
0.584727
0.539768
0.497795
0.458862
0.42291
0.389794
0.359308
0.331208
0.305239
0.281153
0.258727
0.237766
0.218116
0.199654
0.182292
0.165966
0.150637
0.136279
0.122875
0.11041
0.0988665
0.0882217
0.0784451
0.0695001
0.0613446
0.0539326
0.0472158
0.0411448
0.0356694
0.03074
0.0263074
0.0223235
0.0187411
0.0155141
0.0125967
0.00994307
0.00750695
0.00524088
0.00309629
0.00102412
0.108168
0.323404
0.535204
0.740861
0.937165
1.12044
1.28677
1.43234
1.55387
1.649
1.71654
1.7566
1.77041
1.7602
1.72887
1.67975
1.61636
1.54218
1.46054
1.37443
1.28646
1.19878
1.11308
1.03066
0.952377
0.878804
0.810226
0.746706
0.688126
0.634229
0.584656
0.538991
0.496798
0.457661
0.421206
0.387115
0.355133
0.325064
0.296767
0.270145
0.245138
0.221709
0.199835
0.179497
0.160669
0.143314
0.127382
0.112812
0.0995348
0.0874733
0.0765482
0.0666777
0.0577797
0.0497725
0.0425756
0.0361105
0.0303003
0.0250699
0.020345
0.0160514
0.0121137
0.00845447
0.00499341
0.00165109
0.149369
0.446731
0.73974
1.0248
1.29748
1.55253
1.78424
1.98696
2.15584
2.28738
2.37989
2.43357
2.45033
2.43348
2.38726
2.31648
2.22614
2.12121
2.00634
1.88573
1.76301
1.64113
1.52242
1.40855
1.30069
1.19956
1.1055
1.01854
0.938506
0.864984
0.797447
0.735285
0.677866
0.624595
0.574945
0.528474
0.484835
0.443765
0.405079
0.368653
0.334416
0.302328
0.272369
0.244521
0.218752
0.195014
0.173238
0.153338
0.135215
0.118763
0.10387
0.090423
0.0783084
0.0674135
0.0576277
0.0488428
0.0409541
0.0338591
0.0274571
0.021647
0.0163265
0.0113897
0.00672428
0.00222245
0.189638
0.567418
0.940357
1.30415
1.65318
1.98049
2.27828
2.53874
2.75509
2.92252
3.03878
3.10428
3.12179
3.0959
3.0324
2.93773
2.8185
2.6812
2.53189
2.37601
2.21818
2.06215
1.91078
1.76611
1.62952
1.50182
1.38335
1.27412
1.17381
1.08186
0.997534
0.919995
0.848394
0.781941
0.71995
0.661861
0.607241
0.55577
0.507226
0.461471
0.418431
0.378077
0.340399
0.305388
0.273013
0.243215
0.215905
0.19097
0.168281
0.1477
0.129085
0.112289
0.0971698
0.0835836
0.0713901
0.0604532
0.0506414
0.0418271
0.0338848
0.0266892
0.0201125
0.0140222
0.00827418
0.00273331
0.229013
0.685626
1.13749
1.57983
2.00588
2.4068
2.77231
3.0919
3.35643
3.55949
3.69822
3.77341
3.78898
3.7511
3.66736
3.54601
3.3954
3.22364
3.03826
2.84596
2.6524
2.46206
2.27827
2.10337
1.93883
1.78551
1.64372
1.51337
1.394
1.28485
1.18495
1.09319
1.00849
0.929826
0.856359
0.787411
0.722475
0.661184
0.603295
0.548662
0.497222
0.448967
0.403914
0.362071
0.323413
0.287872
0.255335
0.22566
0.198685
0.174238
0.152146
0.132232
0.114322
0.0982432
0.083826
0.0709071
0.0593299
0.0489437
0.039601
0.0311542
0.023452
0.0163373
0.00963385
0.00318051
0.267412
0.801178
1.33103
1.85208
2.35646
2.8332
3.26901
3.64999
3.96399
4.20262
4.36241
4.44481
4.45525
4.4019
4.29445
4.14316
3.95826
3.74956
3.52614
3.29604
3.06594
2.84101
2.625
2.42039
2.22869
2.0507
1.88666
1.73634
1.59914
1.47407
1.35985
1.25509
1.15839
1.0685
0.984413
0.905351
0.830743
0.760193
0.693443
0.630354
0.570885
0.515067
0.462956
0.414593
0.369965
0.328989
0.291529
0.257407
0.226424
0.198374
0.17305
0.150246
0.129759
0.111385
0.0949279
0.0801964
0.0670105
0.055199
0.044595
0.0350314
0.0263355
0.0183274
0.0107984
0.00356225
0.304645
0.913567
1.52037
2.12047
2.70506
3.26075
3.7705
4.21608
4.58143
4.85575
5.035
5.12166
5.12324
5.05041
4.91531
4.73045
4.50801
4.2596
3.99592
3.72643
3.45888
3.19909
2.95106
2.7173
2.49924
2.29754
2.11232
1.94323
1.78945
1.64976
1.52254
1.40601
1.29843
1.1983
1.10444
1.01598
0.932316
0.853036
0.77788
0.706725
0.639565
0.576485
0.517606
0.463016
0.412716
0.366611
0.32453
0.286251
0.251535
0.220139
0.191823
0.166355
0.143501
0.123029
0.104712
0.0883343
0.0736927
0.0605986
0.0488692
0.0383209
0.0287617
0.019991
0.0117663
0.00387771
0.340413
1.02198
1.7044
2.38399
3.05121
3.68992
4.27844
4.79288
5.21213
5.52236
5.71912
5.80653
5.79492
5.69809
5.53104
5.30866
5.04521
4.75409
4.44773
4.13714
3.8312
3.5363
3.25654
2.99428
2.75072
2.52631
2.32099
2.13429
1.96521
1.81225
1.67339
1.54638
1.42907
1.31966
1.21683
1.11965
1.02751
0.939997
0.856859
0.777993
0.703439
0.633362
0.567974
0.507427
0.451746
0.400813
0.354409
0.312262
0.274084
0.239593
0.20852
0.180606
0.155591
0.133213
0.113214
0.0953509
0.0794006
0.0651606
0.0524358
0.0410306
0.0307352
0.0213306
0.0125387
0.00412686
0.374319
1.1253
1.88153
2.64097
3.39374
4.12062
4.79413
5.38296
5.85934
6.20571
6.41754
6.50149
6.4717
6.34584
6.14221
5.87821
5.57011
5.23311
4.88149
4.52802
4.18279
3.85264
3.54158
3.25159
2.98346
2.73734
2.51301
2.30987
2.12677
1.96193
1.81285
1.67669
1.55079
1.43305
1.32202
1.21676
1.11667
1.02139
0.930659
0.844402
0.762714
0.68586
0.614184
0.547933
0.487153
0.43169
0.381264
0.335534
0.294158
0.256817
0.223214
0.193066
0.166089
0.141993
0.120484
0.10129
0.0841698
0.0689122
0.0553148
0.0431743
0.0322649
0.0223522
0.0131186
0.00431018
0.405882
1.22215
2.04973
2.88919
3.73087
4.55223
5.31857
5.98883
6.52632
6.90894
7.13272
7.20813
7.1544
6.99403
6.74897
6.43916
6.08274
5.69659
5.29697
4.89875
4.51341
4.1481
3.80636
3.48956
3.19788
2.93109
2.6888
2.47035
2.27452
2.09924
1.94143
1.7975
1.66417
1.53901
1.42048
1.3077
1.20017
1.09754
0.99958
0.906221
0.817611
0.73415
0.65637
0.584647
0.519048
0.459359
0.405211
0.356182
0.311867
0.27191
0.23599
0.20381
0.175067
0.149435
0.126583
0.106204
0.0880443
0.0718879
0.0575314
0.04477
0.0333631
0.0230641
0.0135106
0.00442859
0.434549
1.31094
2.20655
3.12581
4.06012
4.98357
5.85256
6.61311
7.2165
7.63512
7.86679
7.92755
7.84331
7.64252
7.35109
6.99135
6.58301
6.14435
5.69381
5.2489
4.8228
4.42265
4.05114
3.70864
3.39451
3.10808
2.84885
2.61617
2.40886
2.22463
2.0597
1.90946
1.76983
1.63809
1.5127
1.3929
1.27835
1.16878
1.06393
0.963735
0.868369
0.778412
0.694665
0.617689
0.547554
0.483947
0.426384
0.374338
0.327332
0.28498
0.246947
0.212927
0.182603
0.155615
0.131581
0.110157
0.0910745
0.0741266
0.0591141
0.0458382
0.0340438
0.0234763
0.0137206
0.00448336
0.459718
1.38989
2.34921
3.34742
4.37834
5.41289
6.39674
7.25869
7.93363
8.38737
8.6216
8.66035
8.53813
8.29068
7.948
7.53441
7.07077
6.57621
6.07154
5.57794
5.11064
4.67634
4.27623
3.90935
3.57398
3.26891
2.99368
2.74777
2.53019
2.33857
2.16826
2.01323
1.86842
1.73088
1.59915
1.47274
1.35159
1.23545
1.12404
1.01724
0.915238
0.818821
0.729196
0.647174
0.572799
0.505596
0.44493
0.390144
0.340684
0.296148
0.256189
0.220506
0.18878
0.160615
0.135557
0.113215
0.0933153
0.0756705
0.0600938
0.0464012
0.0343226
0.0235998
0.0137556
0.00447622
0.48077
1.45713
2.47462
3.55009
4.6816
5.83778
6.95157
7.92893
8.68195
9.1688
9.39869
9.40661
9.23797
8.93743
8.53886
8.06789
7.54594
6.99204
6.42963
5.88514
5.37657
4.90928
4.48209
4.09238
3.73704
3.41427
3.12388
2.86561
2.63886
2.4415
2.26776
2.10958
1.96066
1.81797
1.68032
1.54762
1.4202
1.29787
1.18022
1.06706
0.95848
0.855546
0.76007
0.673213
0.594914
0.524452
0.461005
0.403756
0.352066
0.305535
0.263821
0.226637
0.193685
0.164521
0.138594
0.115451
0.0948239
0.0765631
0.0605018
0.0464813
0.0342151
0.0234464
0.0136236
0.0044094
0.497094
1.51079
2.57956
3.72942
4.96521
6.25506
7.51743
8.62788
9.46637
9.98251
10.1992
10.1659
9.94131
9.58125
9.1226
8.59121
8.0086
7.39189
6.76742
6.16961
5.62018
5.12165
4.66925
4.25851
3.88454
3.54491
3.24008
2.97015
2.73519
2.53381
2.35888
2.19933
2.04725
1.89994
1.75666
1.61785
1.48451
1.35634
1.23278
1.11351
0.998375
0.888741
0.787368
0.695903
0.614039
0.540675
0.474779
0.415338
0.361621
0.31327
0.269952
0.23141
0.197399
0.167423
0.140781
0.116941
0.0956586
0.0768482
0.0603692
0.0461008
0.0337375
0.0230283
0.0133335
0.00428581
0.508129
1.54905
2.66074
3.88059
5.22362
6.6606
8.09445
9.36057
10.2927
10.8315
11.0238
10.9372
10.6459
10.2202
9.69802
9.10376
8.45908
7.77608
7.08414
6.43021
5.84111
5.31383
4.83837
4.40868
4.01747
3.6616
3.34296
3.06184
2.81937
2.61584
2.44239
2.28338
2.12892
1.97739
1.8286
1.68373
1.54477
1.41118
1.28203
1.15696
1.03523
0.918535
0.811131
0.715336
0.630321
0.554426
0.486429
0.425064
0.369494
0.319479
0.27469
0.234906
0.2
0.169412
0.142215
0.117762
0.0958771
0.0765686
0.0597266
0.0452805
0.0329052
0.0223583
0.0128954
0.00410924
0.513398
1.57032
2.71498
3.99851
5.45041
7.04909
8.68249
10.1335
11.168
11.7182
11.8726
11.7191
11.3488
10.8521
10.2638
9.60481
8.89814
8.14541
7.37879
6.66539
6.039
5.48641
4.99019
4.54397
4.13695
3.76514
3.43321
3.14116
2.89145
2.68778
2.51912
2.36278
2.20639
2.05086
1.89655
1.74546
1.60125
1.46266
1.32824
1.1978
1.06938
0.945023
0.831348
0.731593
0.643923
0.565871
0.496141
0.433113
0.375826
0.32429
0.278143
0.237198
0.201557
0.170585
0.142996
0.117994
0.0955347
0.0757655
0.0586026
0.0440396
0.031733
0.0214494
0.0123204
0.00388451
0.512545
1.57328
2.73938
4.07799
5.63825
7.41374
9.28088
10.9549
12.1007
12.6444
12.7452
12.5097
12.0459
11.4745
10.8189
10.0934
9.32712
8.50134
7.65002
6.87309
6.21365
5.64029
5.12549
4.66559
4.24425
3.85626
3.51164
3.20864
2.95128
2.74965
2.59005
2.43871
2.2803
2.12089
1.96089
1.80312
1.65414
1.51107
1.37166
1.23646
1.10123
0.968246
0.84793
0.744753
0.655032
0.575174
0.504107
0.439678
0.380751
0.327828
0.280419
0.238346
0.202125
0.171041
0.143236
0.117712
0.0946825
0.0744778
0.0570248
0.0423951
0.0302347
0.0203155
0.0116211
0.00361753
0.505364
1.55703
2.73152
4.11394
5.77892
7.74588
9.88802
11.8359
13.1016
13.6102
13.6404
13.307
12.7319
12.085
11.3623
10.5679
9.7481
8.84632
7.89594
7.05045
6.3651
5.77684
5.24494
4.77493
4.34081
3.93556
3.57912
3.26493
2.99841
2.80122
2.6564
2.5126
2.35117
2.18795
2.02201
1.85668
1.70365
1.55671
1.41241
1.27343
1.13129
0.988169
0.860689
0.75491
0.663875
0.582483
0.510531
0.444962
0.38438
0.330217
0.281634
0.238391
0.201742
0.170886
0.143059
0.116991
0.0933655
0.0727422
0.0550194
0.040361
0.0284227
0.0189716
0.0108116
0.0033154
0.491823
1.52116
2.6896
4.10161
5.8635
8.03455
10.5007
12.7912
14.1838
14.6129
14.5566
14.1095
13.3998
12.6812
11.8939
11.0259
10.1642
9.18424
8.11377
7.19358
6.49387
5.89811
5.34894
4.87354
4.42839
4.00331
3.63666
3.31086
3.03201
2.84188
2.71967
2.58618
2.41923
2.25254
2.08036
1.90587
1.74999
1.59992
1.4505
1.30932
1.16019
1.00464
0.869303
0.762188
0.670741
0.587914
0.515624
0.449191
0.386795
0.331582
0.281916
0.237347
0.200422
0.170238
0.142604
0.115896
0.0916202
0.0705941
0.0526113
0.0379482
0.0263072
0.0174344
0.0099076
0.0029863
0.472075
1.46578
2.61267
4.03694
5.88249
8.26599
11.1131
13.8405
15.3644
15.6452
15.4918
14.9165
14.0398
13.2618
12.4144
11.4629
10.5801
9.52108
8.29934
7.29711
6.60129
6.00703
5.43724
4.96328
4.50909
4.05927
3.6855
3.34769
3.05073
2.87048
2.78188
2.66161
2.48427
2.31514
2.1365
1.9501
1.79342
1.64114
1.48568
1.34484
1.1888
1.01734
0.873274
0.766782
0.676007
0.591516
0.519616
0.452625
0.388023
0.332053
0.281417
0.235198
0.198143
0.169235
0.142037
0.114476
0.0894723
0.0680684
0.0498257
0.0351633
0.0238959
0.0157231
0.00892725
0.00263931
0.446456
1.39163
2.50073
3.91687
5.82624
8.42322
11.7154
15.0104
16.6653
16.6923
16.4444
15.73
14.6381
13.8266
12.9265
11.8712
11.002
9.86568
8.44644
7.35375
6.68997
6.10781
5.50842
5.04635
4.58567
4.10227
3.72724
3.37727
3.0525
2.88517
2.84576
2.74162
2.54534
2.37632
2.19127
1.98829
1.83435
1.68101
1.51729
1.38093
1.21829
1.02571
0.871878
0.769006
0.680179
0.59322
0.522762
0.455579
0.388011
0.331769
0.280331
0.23188
0.194841
0.16804
0.141552
0.11276
0.0869351
0.0652023
0.0466879
0.0320084
0.0211932
0.0138606
0.00789093
0.00228421
0.415475
1.29996
2.35483
3.73971
5.68548
8.4857
12.2908
16.3364
18.115
17.7284
17.4144
16.5555
15.1749
14.3779
13.4359
12.2382
11.4394
10.231
8.54582
7.35368
6.76445
6.20636
5.55913
5.12562
4.66177
4.12969
3.76398
3.40236
3.03428
2.88304
2.91502
2.8298
2.60028
2.43686
2.2459
2.01862
1.87342
1.72044
1.54407
1.41876
1.25027
1.02882
0.864101
0.76936
0.683937
0.592763
0.525364
0.458451
0.386571
0.330894
0.278915
0.227269
0.190393
0.166858
0.141389
0.110736
0.0840077
0.062039
0.0432249
0.0284796
0.0181988
0.0118748
0.00682174
0.00193107
0.379787
1.19257
2.17713
3.50548
5.45207
8.42926
12.8134
17.8666
19.7518
18.7108
18.4049
17.4054
15.6206
14.9218
13.9526
12.543
11.9049
10.6354
8.58386
7.2839
6.83207
6.3109
5.58291
5.20493
4.74243
4.13667
3.79864
3.42711
2.99179
2.85982
2.99481
2.9308
2.64518
2.49793
2.30234
2.03813
1.91168
1.76086
1.56378
1.45993
1.28698
1.02523
0.848576
0.768623
0.6882
0.589577
0.527805
0.461772
0.383326
0.329636
0.277523
0.221155
0.184601
0.165949
0.141841
0.108339
0.0806755
0.0586325
0.0394661
0.0245657
0.0149068
0.00980023
0.00574543
0.00158979
0.340158
1.0717
1.97083
3.21615
5.11987
8.22656
13.2423
19.6648
21.6263
19.5726
19.4254
18.301
15.9321
15.4706
14.4932
12.7529
12.4169
11.1049
8.54075
7.12751
6.90406
6.43275
5.56864
5.28971
4.8347
4.11504
3.83533
3.45751
2.91909
2.80938
3.09215
3.05081
2.67349
2.56145
2.36357
2.04222
1.95084
1.80441
1.57276
1.50662
1.33147
1.01281
0.823508
0.76797
0.694206
0.582634
0.530597
0.466259
0.377608
0.328272
0.276642
0.213218
0.177175
0.165656
0.143277
0.105421
0.0769133
0.0550533
0.0354433
0.0202467
0.0113038
0.00768069
0.0046902
0.00126959
0.297428
0.939887
1.74005
2.87584
4.68587
7.84817
13.5164
21.8158
23.807
20.2123
20.4958
19.2779
16.0455
16.0453
15.0839
12.8179
13.0008
11.6749
8.38826
6.86291
6.99688
6.58724
5.49841
5.3878
4.94854
4.05182
3.8799
3.50211
2.80812
2.72321
3.21657
3.19806
2.67492
2.63049
2.43407
2.0239
1.99362
1.85429
1.56535
1.56182
1.38788
0.988437
0.786605
0.769108
0.703611
0.570236
0.534466
0.472901
0.368341
0.327195
0.27694
0.202982
0.167708
0.166423
0.146156
0.101716
0.0726916
0.0513959
0.031191
0.0154918
0.00736749
0.00557234
0.00368591
0.00097844
0.252465
0.799888
1.48967
2.49083
4.15128
7.26478
13.5458
24.4304
26.3862
20.4812
21.6521
20.3901
15.8681
16.6798
15.7641
12.6635
13.6926
12.3933
8.08671
6.46319
7.13369
6.79503
5.34477
5.51066
5.09783
3.92729
3.94073
3.57272
2.64815
2.58968
3.38081
3.38349
2.63395
2.70995
2.52038
1.97279
2.04417
1.91522
1.53303
1.62967
1.46177
0.947657
0.735022
0.774442
0.71861
0.549748
0.540454
0.483053
0.353874
0.326978
0.279319
0.189777
0.155655
0.168832
0.151057
0.0968005
0.0679897
0.0477859
0.0267453
0.0102577
0.00306357
0.00354765
0.00276271
0.000722457
0.206125
0.654494
1.22504
2.06937
3.52257
6.45082
13.2018
27.6525
29.4882
20.1662
22.9546
21.7172
15.2674
17.4262
16.5912
12.1819
14.5424
13.3235
7.58142
5.89548
7.34611
7.0836
5.06719
5.67494
5.30186
3.71247
4.02974
3.68524
2.42515
2.3933
3.60161
3.62163
2.52804
2.80741
2.63186
1.87387
2.10871
1.99396
1.4634
1.71595
1.56041
0.88429
0.66532
0.787244
0.742095
0.517253
0.550077
0.498564
0.331769
0.328456
0.284981
0.172669
0.14031
0.173636
0.158701
0.090032
0.0628147
0.0443869
0.0221419
0.00448672
-0.00165668
0.00170062
0.00194891
0.000505404
0.159217
0.506423
0.951717
1.62134
2.8123
5.38984
12.3036
31.6664
33.2794
18.9697
24.4977
23.3717
14.0564
18.3613
17.6464
11.2209
15.6196
14.5474
6.79836
5.1207
7.6759
7.48922
4.60773
5.90456
5.58689
3.36609
4.16378
3.86053
2.1211
2.11382
3.90061
3.93168
2.32524
2.93425
2.78152
1.70589
2.19628
2.10001
1.33892
1.82864
1.69322
0.789897
0.573465
0.81184
0.777843
0.467125
0.565521
0.521921
0.298542
0.332846
0.295483
0.150397
0.120785
0.181796
0.169991
0.0804844
0.0572315
0.0414066
0.0174129
-0.00189401
-0.00686022
0.000153087
0.00126793
0.000328412
0.112473
0.358196
0.675167
1.15768
2.03934
4.08211
10.603
36.7047
37.9813
16.4843
26.4232
25.5074
11.9775
19.5949
19.0416
9.57017
17.0197
16.1691
5.63908
4.09363
8.17663
8.05929
3.88588
6.23328
5.98813
2.83078
4.36639
4.12525
1.71325
1.72528
4.30523
4.33889
1.98154
3.10704
2.98703
1.43937
2.31968
2.24636
1.13531
1.97867
1.87214
0.653192
0.454882
0.853774
0.830737
0.391525
0.589896
0.55641
0.249343
0.341894
0.312807
0.121291
0.0959897
0.194521
0.186047
0.0668644
0.0514028
0.0390992
0.0125821
-0.00897326
-0.0126368
-0.000937498
0.000734213
0.000190097
0.0665288
0.21205
0.400468
0.689619
1.22839
2.55473
7.76625
43.0575
43.8854
12.1642
28.9356
28.3296
8.68225
21.2797
20.9271
6.94551
18.8716
18.3183
3.97504
2.76352
8.91514
8.85519
2.79247
6.7079
6.55185
2.02876
4.66998
4.5126
1.17337
1.19497
4.84957
4.8761
1.43754
3.34928
3.27181
1.0344
2.49664
2.45048
0.819778
2.18087
2.112
0.459365
0.304565
0.919959
0.907049
0.279807
0.627543
0.606304
0.177583
0.35807
0.339415
0.0831783
0.0646248
0.213302
0.208247
0.0474165
0.0456425
0.037764
0.00765961
-0.0168545
-0.0191043
-0.00136894
0.000348124
8.73477e-05
0.0219129
0.0698737
0.132083
0.227923
0.408386
0.87451
3.35304
51.0807
51.3715
5.2915
32.3205
32.1049
3.70814
23.6229
23.5006
2.97099
21.348
21.1531
1.6414
1.07531
9.97252
9.95564
1.18277
7.39194
7.3378
0.856779
5.11852
5.06289
0.467096
0.482464
5.57522
5.58572
0.61486
3.69338
3.66625
0.437982
2.75113
2.73524
0.348899
2.45506
2.4309
0.189331
0.117279
1.01877
1.01475
0.117846
0.684402
0.677049
0.0745094
0.384798
0.378286
0.0332893
0.0251757
0.239951
0.238282
0.0198143
0.0404833
0.0377379
0.0026355
-0.0256535
-0.0264157
-0.000883689
8.99243e-05
1.70878e-05
)
;

boundaryField
{
    left
    {
        type            calculated;
        value           uniform 0;
    }
    right
    {
        type            calculated;
        value           uniform 0;
    }
    interface
    {
        type            calculated;
        value           nonuniform List<scalar> 
64
(
0.0219129
0.0698737
0.132083
0.227923
0.408386
0.87451
3.35304
51.0807
51.3715
5.2915
32.3205
32.1049
3.70814
23.6229
23.5006
2.97099
21.348
21.1531
1.6414
1.07531
9.97252
9.95564
1.18277
7.39194
7.3378
0.856779
5.11852
5.06289
0.467096
0.482464
5.57522
5.58572
0.61486
3.69338
3.66625
0.437982
2.75113
2.73524
0.348899
2.45506
2.4309
0.189331
0.117279
1.01877
1.01475
0.117846
0.684402
0.677049
0.0745094
0.384798
0.378286
0.0332893
0.0251757
0.239951
0.238282
0.0198143
0.0404833
0.0377379
0.0026355
-0.0256535
-0.0264157
-0.000883689
8.99243e-05
1.70878e-05
)
;
    }
    bottom
    {
        type            calculated;
        value           nonuniform List<scalar> 
64
(
0.0222149
0.0663978
0.109818
0.151897
0.191978
0.229333
0.2632
0.29285
0.317661
0.337182
0.351183
0.359669
0.362872
0.361211
0.355246
0.345631
0.333059
0.318227
0.301801
0.284387
0.266516
0.248635
0.231096
0.214172
0.198053
0.182863
0.168671
0.155497
0.143322
0.132101
0.121767
0.112238
0.10343
0.0952619
0.0876577
0.0805527
0.0738942
0.0676406
0.0617614
0.056235
0.0510471
0.0461885
0.0416529
0.0374347
0.0335278
0.0299241
0.0266136
0.0235839
0.0208209
0.0183091
0.0160324
0.0139741
0.0121173
0.0104452
0.00894124
0.00758916
0.006373
0.00527708
0.00428589
0.00338389
0.00255536
0.00178429
0.00105431
0.000348761
)
;
    }
    defaultFaces
    {
        type            empty;
    }
}


// ************************************************************************* //
