/*--------------------------------*- C++ -*----------------------------------*\
| =========                 |                                                 |
| \\      /  F ield         | OpenFOAM: The Open Source CFD Toolbox           |
|  \\    /   O peration     | Version:  5.x                                   |
|   \\  /    A nd           | Web:      www.OpenFOAM.org                      |
|    \\/     M anipulation  |                                                 |
\*---------------------------------------------------------------------------*/
FoamFile
{
    version     2.0;
    format      ascii;
    class       volScalarField;
    location    "10.4";
    object      T;
}
// * * * * * * * * * * * * * * * * * * * * * * * * * * * * * * * * * * * * * //

dimensions      [0 0 0 1 0 0 0];

internalField   nonuniform List<scalar> 
2048
(
9.85535
9.85604
9.85742
9.85947
9.86217
9.86547
9.86934
9.8737
9.87849
9.88363
9.88902
9.8946
9.90026
9.90594
9.91155
9.91704
9.92235
9.92745
9.9323
9.93688
9.94118
9.94521
9.94895
9.95243
9.95565
9.95862
9.96136
9.96389
9.96622
9.96837
9.97035
9.97217
9.97386
9.97541
9.97683
9.97815
9.97935
9.98046
9.98147
9.98239
9.98322
9.98398
9.98467
9.98528
9.98584
9.98633
9.98677
9.98716
9.98751
9.98781
9.98808
9.98831
9.98852
9.98869
9.98884
9.98897
9.98908
9.98917
9.98925
9.9893
9.98935
9.98938
9.98941
9.98942
9.5718
9.57385
9.57795
9.58403
9.59203
9.60184
9.61331
9.62626
9.64049
9.65575
9.67178
9.68833
9.70515
9.72198
9.73863
9.7549
9.77064
9.78572
9.80008
9.81363
9.82636
9.83825
9.84932
9.85959
9.86909
9.87786
9.88595
9.89342
9.90029
9.90663
9.91247
9.91786
9.92282
9.9274
9.93161
9.93548
9.93904
9.9423
9.94528
9.948
9.95047
9.9527
9.95472
9.95654
9.95817
9.95963
9.96093
9.96208
9.9631
9.964
9.96479
9.96548
9.96607
9.96659
9.96704
9.96741
9.96773
9.968
9.96822
9.96839
9.96853
9.96863
9.96869
9.96872
9.29909
9.30247
9.30919
9.31919
9.33235
9.34848
9.36736
9.38869
9.41212
9.43725
9.46365
9.49089
9.51855
9.54622
9.57355
9.60024
9.62604
9.65076
9.67424
9.6964
9.71719
9.7366
9.75465
9.77138
9.78686
9.80114
9.81432
9.82646
9.83765
9.84797
9.85747
9.86624
9.87432
9.88176
9.88862
9.89493
9.90072
9.90602
9.91088
9.9153
9.91932
9.92296
9.92625
9.9292
9.93186
9.93422
9.93633
9.9382
9.93986
9.94132
9.94259
9.94371
9.94468
9.94551
9.94623
9.94684
9.94736
9.94779
9.94814
9.94843
9.94865
9.9488
9.94891
9.94896
9.03597
9.04064
9.04993
9.06375
9.08195
9.1043
9.13047
9.16006
9.19256
9.22743
9.26404
9.3018
9.34009
9.37837
9.41614
9.45297
9.48853
9.52254
9.55482
9.58524
9.61375
9.64033
9.66503
9.68791
9.70905
9.72855
9.74653
9.7631
9.77836
9.79243
9.80539
9.81735
9.82837
9.83853
9.84789
9.8565
9.86441
9.87165
9.87827
9.88431
9.88979
9.89476
9.89924
9.90327
9.90688
9.91011
9.91298
9.91552
9.91777
9.91975
9.92148
9.92299
9.92431
9.92544
9.92641
9.92724
9.92794
9.92852
9.929
9.92938
9.92967
9.92989
9.93003
9.9301
8.7814
8.78733
8.79913
8.81672
8.83989
8.86838
8.90178
8.93957
8.98112
9.02567
9.07244
9.12063
9.16945
9.21819
9.2662
9.31295
9.358
9.40103
9.44179
9.48015
9.51604
9.54947
9.58048
9.60918
9.63567
9.6601
9.68261
9.70333
9.72242
9.74001
9.75623
9.77119
9.78498
9.7977
9.80942
9.8202
9.8301
9.83917
9.84747
9.85502
9.86189
9.8681
9.8737
9.87874
9.88325
9.88727
9.89085
9.89402
9.89682
9.89928
9.90143
9.90331
9.90494
9.90635
9.90755
9.90858
9.90944
9.91016
9.91075
9.91122
9.91158
9.91185
9.91202
9.91211
8.53454
8.5417
8.55597
8.57725
8.60534
8.63993
8.68055
8.72657
8.77717
8.83145
8.88841
8.94702
9.00633
9.06543
9.12355
9.18003
9.23436
9.28614
9.3351
9.38109
9.42404
9.46397
9.50098
9.53517
9.56671
9.59576
9.6225
9.64712
9.6698
9.69069
9.70995
9.72772
9.74411
9.75923
9.77317
9.78599
9.79777
9.80857
9.81844
9.82742
9.83558
9.84296
9.84961
9.85558
9.86093
9.86569
9.86992
9.87367
9.87697
9.87988
9.88242
9.88463
9.88655
9.88821
9.88962
9.89082
9.89184
9.89268
9.89337
9.89392
9.89434
9.89465
9.89485
9.89495
8.2947
8.30305
8.31973
8.34465
8.37761
8.41829
8.46615
8.52044
8.58021
8.64432
8.71154
8.78064
8.85044
8.91987
8.988
9.05407
9.11748
9.17777
9.23465
9.28796
9.33765
9.38377
9.42643
9.4658
9.50207
9.53545
9.56615
9.59441
9.62041
9.64438
9.66648
9.68687
9.7057
9.72307
9.73909
9.75384
9.76738
9.7798
9.79114
9.80147
9.81084
9.81931
9.82693
9.83377
9.83989
9.84534
9.85017
9.85445
9.85821
9.86152
9.86441
9.86693
9.86911
9.87098
9.87259
9.87395
9.8751
9.87605
9.87682
9.87744
9.87792
9.87826
9.87849
9.8786
8.0613
8.07082
8.08984
8.11833
8.15611
8.20286
8.25801
8.32069
8.38976
8.46386
8.5415
8.6212
8.70155
8.7813
8.85938
8.93491
9.00721
9.07578
9.14032
9.20065
9.25677
9.30874
9.35674
9.40097
9.44166
9.47907
9.51345
9.54508
9.57418
9.601
9.62574
9.64858
9.66967
9.68915
9.70712
9.72367
9.73887
9.7528
9.76553
9.77711
9.78761
9.7971
9.80563
9.81327
9.8201
9.82617
9.83155
9.83631
9.8405
9.84417
9.84738
9.85017
9.85258
9.85465
9.85642
9.85792
9.85918
9.86022
9.86108
9.86175
9.86227
9.86265
9.8629
9.86302
7.83389
7.84453
7.86583
7.89779
7.94033
7.99314
8.05564
8.12684
8.20542
8.28972
8.37799
8.46845
8.55944
8.64954
8.73751
8.82238
8.90341
8.98004
9.05197
9.11904
9.18126
9.23876
9.29177
9.34053
9.38534
9.42649
9.46428
9.49902
9.53098
9.56043
9.58761
9.61273
9.63594
9.65738
9.67718
9.69541
9.71217
9.72752
9.74154
9.7543
9.76585
9.77628
9.78565
9.79403
9.8015
9.80815
9.81403
9.81922
9.82379
9.82779
9.83127
9.8343
9.83692
9.83916
9.84108
9.8427
9.84406
9.84518
9.8461
9.84682
9.84738
9.84778
9.84805
9.84817
7.61213
7.62383
7.6473
7.68263
7.72983
7.78868
7.8586
7.9385
8.02682
8.1216
8.22074
8.32215
8.42392
8.52439
8.62222
8.71634
8.80592
8.8904
8.96945
9.04295
9.11095
9.17366
9.23135
9.28433
9.33296
9.37757
9.4185
9.4561
9.49068
9.52256
9.552
9.57921
9.60439
9.62767
9.64917
9.66899
9.6872
9.70388
9.71912
9.73297
9.7455
9.7568
9.76694
9.77599
9.78406
9.79122
9.79755
9.80313
9.80804
9.81233
9.81606
9.8193
9.82209
9.82449
9.82653
9.82826
9.8297
9.83089
9.83185
9.83261
9.8332
9.83362
9.8339
9.83403
7.39574
7.40843
7.43394
7.47248
7.52422
7.58907
7.66648
7.75528
7.85363
7.95922
8.06954
8.18212
8.29479
8.4057
8.51335
8.6166
8.71458
8.80669
8.8926
8.97222
9.04568
9.11326
9.17531
9.23221
9.28436
9.33214
9.37596
9.41617
9.45315
9.48725
9.51876
9.54792
9.57493
9.59992
9.62302
9.64431
9.66389
9.68182
9.69818
9.71306
9.7265
9.73861
9.74945
9.75912
9.76772
9.77534
9.78207
9.788
9.7932
9.79775
9.8017
9.80512
9.80807
9.81059
9.81274
9.81455
9.81606
9.8173
9.8183
9.8191
9.8197
9.82014
9.82042
9.82056
7.18453
7.19811
7.2255
7.26706
7.32318
7.39394
7.47892
7.57684
7.68558
7.80235
7.92417
8.04819
8.17191
8.29329
8.41074
8.52301
8.62922
8.72873
8.82123
8.90666
8.98526
9.05738
9.12346
9.18397
9.23936
9.29005
9.33649
9.37908
9.41824
9.45436
9.48776
9.51872
9.54743
9.57403
9.59862
9.6213
9.64215
9.66125
9.67867
9.6945
9.70879
9.72163
9.73312
9.74334
9.75242
9.76045
9.76754
9.77378
9.77924
9.78401
9.78815
9.79172
9.7948
9.79743
9.79966
9.80154
9.80311
9.80439
9.80542
9.80624
9.80685
9.8073
9.80759
9.80773
6.97835
6.99272
7.02179
7.06613
7.1264
7.20296
7.29555
7.40285
7.52238
7.65078
7.78449
7.92021
8.05512
8.18702
8.31421
8.4354
8.54966
8.65636
8.75516
8.84609
8.92947
9.0058
9.07561
9.13943
9.19778
9.25112
9.29993
9.34467
9.3858
9.42374
9.45888
9.4915
9.52179
9.54989
9.57588
9.59986
9.62191
9.6421
9.66051
9.67722
9.6923
9.70583
9.71789
9.72861
9.73811
9.74651
9.75391
9.76042
9.76611
9.77106
9.77536
9.77907
9.78225
9.78497
9.78727
9.7892
9.79081
9.79212
9.79317
9.794
9.79462
9.79507
9.79536
9.7955
6.77713
6.79216
6.82267
6.86949
6.93361
7.01579
7.11604
7.23302
7.36382
7.50434
7.65034
7.79804
7.9443
8.08673
8.22359
8.35357
8.47572
8.58938
8.69422
8.79031
8.87813
8.95832
9.03154
9.09839
9.15943
9.21517
9.26613
9.31279
9.35568
9.39526
9.43197
9.46613
9.4979
9.5274
9.55471
9.57991
9.60307
9.62429
9.64363
9.66117
9.67698
9.69112
9.70371
9.71487
9.72475
9.73347
9.74114
9.74787
9.75376
9.75887
9.7633
9.76712
9.77039
9.77317
9.77553
9.7775
9.77913
9.78046
9.78153
9.78236
9.78298
9.78342
9.78371
9.78385
6.58082
6.59636
6.62804
6.67697
6.74458
6.83213
6.94005
7.06705
7.20967
7.36288
7.52163
7.6816
7.83931
7.99227
8.13873
8.27735
8.4072
8.52762
8.6382
8.7391
8.831
8.91473
8.99105
9.06064
9.12413
9.18204
9.23491
9.28329
9.32772
9.36876
9.4069
9.44248
9.47563
9.50645
9.53501
9.56135
9.58557
9.60774
9.62795
9.64627
9.66275
9.67746
9.69052
9.70207
9.71227
9.72126
9.72916
9.7361
9.74214
9.7474
9.75193
9.75583
9.75916
9.762
9.7644
9.7664
9.76805
9.76939
9.77045
9.77128
9.77189
9.77233
9.77261
9.77275
6.38943
6.40531
6.43784
6.48846
6.5591
6.65169
6.76725
6.90465
7.05977
7.22629
7.39825
7.57079
7.74004
7.90347
8.05942
8.20653
8.34391
8.47088
8.58692
8.69226
8.78786
8.87479
8.95392
9.02599
9.09169
9.15154
9.20611
9.25601
9.3018
9.34411
9.38354
9.42044
9.4549
9.48697
9.51669
9.54411
9.56931
9.59238
9.61341
9.63245
9.64956
9.6648
9.67827
9.69015
9.70062
9.70984
9.71795
9.72504
9.73123
9.73659
9.74121
9.74517
9.74855
9.75142
9.75385
9.75587
9.75753
9.75887
9.75992
9.76073
9.76134
9.76176
9.76203
9.76216
6.20297
6.21901
6.25204
6.30386
6.377
6.47418
6.59728
6.74551
6.91395
7.09451
7.28014
7.46553
7.64637
7.82018
7.9855
8.14092
8.28565
8.41899
8.54019
8.64958
8.74848
8.8383
8.91993
8.99424
9.06193
9.12352
9.17959
9.23081
9.27775
9.32116
9.36175
9.39989
9.43558
9.46884
9.49967
9.5281
9.55422
9.57814
9.59993
9.61965
9.63736
9.65307
9.66689
9.67905
9.68975
9.69917
9.70744
9.71467
9.72097
9.72642
9.73111
9.73511
9.73852
9.74141
9.74385
9.74588
9.74754
9.74886
9.7499
9.7507
9.75128
9.75169
9.75195
9.75207
6.02149
6.03751
6.07066
6.12311
6.19809
6.29931
6.42977
6.58934
6.77211
6.96748
7.16725
7.36577
7.55818
7.7422
7.91676
8.0803
8.23218
8.37177
8.49784
8.61083
8.71263
8.80501
8.88889
8.96518
9.03469
9.09781
9.15519
9.20755
9.25546
9.29978
9.34139
9.38072
9.4176
9.45198
9.48388
9.51325
9.54023
9.56495
9.58745
9.60781
9.62609
9.64222
9.65634
9.66872
9.67962
9.68919
9.69759
9.70495
9.71133
9.71684
9.72158
9.72561
9.72902
9.73192
9.73437
9.7364
9.73805
9.73936
9.74038
9.74114
9.7417
9.74209
9.74234
9.74245
5.84505
5.86085
5.89371
5.94621
6.02227
6.1268
6.26433
6.4358
6.6342
6.84522
7.05952
7.27148
7.47537
7.66936
7.85302
8.02443
8.18327
8.32906
8.45972
8.57581
8.68004
8.77471
8.86057
8.93862
9.00978
9.07427
9.13277
9.18612
9.2348
9.27982
9.32234
9.36283
9.40086
9.4363
9.46923
9.49949
9.52725
9.55273
9.5759
9.59687
9.61569
9.63222
9.64657
9.65912
9.67016
9.67986
9.68837
9.69582
9.70227
9.70783
9.71259
9.71663
9.72004
9.72293
9.72538
9.72741
9.72904
9.73032
9.73131
9.73204
9.73257
9.73293
9.73316
9.73327
5.67372
5.68909
5.72125
5.77314
5.84943
5.95637
6.10051
6.28452
6.50023
6.72776
6.95689
7.18266
7.39781
7.6014
7.7941
7.97308
8.13866
8.29072
8.42566
8.54427
8.65046
8.7472
8.83478
8.91436
8.98708
9.05275
9.11218
9.16639
9.21565
9.26114
9.30445
9.34613
9.38527
9.42173
9.45566
9.48674
9.51522
9.54143
9.56522
9.58676
9.60614
9.62301
9.63753
9.65018
9.66135
9.67114
9.67972
9.68725
9.69376
9.69934
9.70412
9.70815
9.71154
9.71441
9.71686
9.71887
9.72048
9.72173
9.72269
9.72338
9.72387
9.7242
9.72442
9.72451
5.50755
5.5223
5.55336
5.60395
5.67951
5.78778
5.93782
6.13506
6.37034
6.6152
6.85925
7.09932
7.32539
7.53806
7.73982
7.92601
8.09804
8.25664
8.39557
8.51599
8.62361
8.72228
8.81133
8.8922
8.96643
9.03311
9.09328
9.14828
9.1979
9.24361
9.2876
9.33055
9.37077
9.40818
9.44312
9.47495
9.50406
9.53099
9.55535
9.57742
9.59738
9.61457
9.62917
9.64186
9.65313
9.66298
9.67161
9.67922
9.68576
9.69135
9.69614
9.70014
9.70349
9.70633
9.70877
9.71077
9.71235
9.71357
9.71448
9.71513
9.71558
9.71587
9.71607
9.71615
5.34661
5.36056
5.3901
5.43871
5.5125
5.62078
5.77573
5.98689
6.2448
6.50768
6.76644
7.02156
7.258
7.479
7.69008
7.88296
8.06105
8.22677
8.36936
8.49072
8.59916
8.69979
8.79003
8.87192
8.94773
9.01523
9.07592
9.1317
9.18146
9.22709
9.27163
9.31602
9.3573
9.39556
9.43156
9.46404
9.4937
9.52136
9.54623
9.56878
9.58938
9.60685
9.62143
9.6341
9.64547
9.65535
9.664
9.67169
9.67824
9.68381
9.68861
9.69258
9.69585
9.69866
9.70111
9.70309
9.70463
9.7058
9.70667
9.70726
9.70767
9.70793
9.7081
9.70817
5.19094
5.20393
5.23157
5.27752
5.34843
5.45519
5.61361
5.83928
6.12412
6.40537
6.67814
6.94957
7.1955
7.42378
7.64481
7.84366
8.02725
8.20114
8.34697
8.46819
8.57677
8.67958
8.77072
8.85331
8.9309
8.99899
9.05995
9.11661
9.16627
9.21143
9.25637
9.30253
9.3448
9.38378
9.42095
9.45397
9.48403
9.51251
9.5378
9.56077
9.58213
9.59984
9.61428
9.62684
9.63833
9.64821
9.65685
9.66463
9.67118
9.67671
9.68152
9.68543
9.68862
9.69138
9.69383
9.6958
9.69729
9.69842
9.69923
9.69977
9.70012
9.70034
9.70049
9.70055
5.04058
5.05245
5.07785
5.12049
5.1874
5.29086
5.45081
5.69128
6.00914
6.30852
6.59386
6.88368
7.13777
7.37182
7.60408
7.80784
7.99605
8.17987
8.32841
8.44811
8.55603
8.66161
8.75324
8.83608
8.9159
8.98428
9.04517
9.10299
9.15227
9.19648
9.24164
9.29007
9.33322
9.37273
9.41128
9.44468
9.47497
9.50442
9.53
9.55329
9.57562
9.59351
9.60766
9.62002
9.63168
9.64153
9.65011
9.65802
9.66454
9.67
9.67484
9.67868
9.68175
9.68444
9.68694
9.68888
9.69032
9.6914
9.69215
9.69263
9.69292
9.6931
9.69323
9.69328
4.89554
4.90617
4.92903
4.96776
5.02954
5.12775
5.28662
5.54158
5.90114
6.2174
6.51278
6.82444
7.08469
7.32232
7.56815
7.77523
7.96668
8.16326
8.3137
8.43016
8.53644
8.64591
8.73746
8.81993
8.90277
8.97101
9.03136
9.09087
9.13941
9.18209
9.2272
9.27872
9.32254
9.36226
9.40258
9.43613
9.4664
9.49709
9.52279
9.54624
9.56987
9.58785
9.60152
9.61358
9.62552
9.63527
9.64373
9.65186
9.6583
9.66366
9.66856
9.6723
9.67522
9.67784
9.6804
9.68232
9.68369
9.68472
9.68541
9.68583
9.68605
9.68618
9.68629
9.68633
4.75581
4.76511
4.78518
4.81948
4.87505
4.96592
5.12031
5.3883
5.80205
6.13227
6.43369
6.77277
7.03612
7.27419
7.53753
7.74556
7.93809
8.15183
8.30293
8.41397
8.5174
8.63262
8.72325
8.80444
8.89162
8.95909
9.01824
9.08033
9.12768
9.16809
9.21278
9.2686
9.31272
9.3522
9.39492
9.42826
9.45817
9.49056
9.51612
9.53948
9.56492
9.58285
9.59581
9.60743
9.61985
9.62942
9.63767
9.64612
9.65244
9.65763
9.66267
9.66629
9.66901
9.67153
9.67421
9.67609
9.67739
9.67837
9.679
9.67934
9.67948
9.67957
9.67966
9.67969
4.62137
4.62926
4.64637
4.67581
4.72421
4.80554
4.95123
5.22885
5.71468
6.05342
6.35472
6.73005
6.99191
7.22593
7.51315
7.71855
7.90888
8.14645
8.29617
8.39916
8.49815
8.62209
8.71049
8.78911
8.8827
8.94842
9.00543
9.07156
9.11708
9.15432
9.198
9.25997
9.30374
9.34228
9.38843
9.42104
9.45007
9.48492
9.50993
9.53283
9.56085
9.57851
9.59047
9.60148
9.61467
9.62394
9.63185
9.64083
9.64694
9.65188
9.65716
9.66061
9.66309
9.66548
9.66837
9.6702
9.67139
9.67232
9.67289
9.67316
9.67321
9.67325
9.67332
9.67334
4.49217
4.49861
4.51263
4.5369
4.57729
4.64698
4.77888
5.05953
5.64302
5.98104
6.27322
6.69837
6.95188
7.17547
7.49645
7.69395
7.87713
8.1484
8.29349
8.38532
8.47772
8.61489
8.69909
8.77324
8.87643
8.93892
8.99244
9.06485
9.10761
9.14063
9.1824
9.25318
9.29557
9.33219
9.38331
9.41443
9.44186
9.48033
9.50418
9.52606
9.5578
9.57482
9.58543
9.59561
9.61003
9.6188
9.6262
9.63599
9.64178
9.64636
9.65204
9.65527
9.65744
9.65965
9.66287
9.66461
9.66568
9.66657
9.66707
9.66727
9.66721
9.66721
9.66726
9.66728
4.36815
4.37312
4.38397
4.40286
4.43464
4.49075
4.60307
4.87523
5.59265
5.91521
6.18545
6.68077
6.91581
7.12003
7.4896
7.67148
7.84026
8.1596
8.29486
8.37204
8.45488
8.61192
8.68892
8.75591
8.87344
8.9305
8.97863
9.06062
9.09927
9.1269
9.16533
9.24879
9.28819
9.32146
9.37989
9.40838
9.4332
9.47701
9.49882
9.51886
9.55597
9.57177
9.58065
9.58969
9.60602
9.614
9.62062
9.63167
9.63693
9.641
9.64733
9.65023
9.65203
9.65401
9.65771
9.65932
9.66023
9.66111
9.66152
9.66165
9.66146
9.66144
9.66147
9.66148
4.24921
4.25272
4.2604
4.27382
4.29658
4.33755
4.42414
4.66889
5.57117
5.85581
6.0863
6.68153
6.88341
7.05583
7.49575
7.65088
7.79482
8.18275
8.3001
8.35897
8.42803
8.61449
8.67988
8.73592
8.87467
8.92305
8.96313
9.0595
9.09205
9.11304
9.14596
9.24758
9.28155
9.3095
9.37865
9.40284
9.42363
9.47533
9.49383
9.51081
9.55566
9.56932
9.57607
9.58353
9.60275
9.60949
9.61499
9.62793
9.63237
9.63572
9.64306
9.64549
9.64685
9.64849
9.65293
9.65431
9.65502
9.65591
9.65624
9.65631
9.65596
9.65591
9.65593
9.65594
4.13525
4.13733
4.14188
4.14984
4.16343
4.18823
4.24326
4.43093
5.58881
5.80235
5.96894
6.70658
6.85424
6.9779
7.51923
7.63187
7.73628
8.22161
8.30873
8.34583
8.39509
8.62443
8.67181
8.71169
8.88143
8.91644
8.94483
9.06238
9.08585
9.09904
9.12319
9.25059
9.27557
9.29552
9.38024
9.39776
9.41256
9.47578
9.48914
9.5014
9.55729
9.5674
9.57165
9.57692
9.60039
9.60526
9.60914
9.62487
9.62809
9.63042
9.63927
9.64103
9.64187
9.64305
9.64854
9.64956
9.65002
9.65098
9.6512
9.65122
9.65068
9.65062
9.65063
9.65064
4.02616
4.02685
4.02834
4.03097
4.03547
4.04374
4.0628
4.14852
5.65907
5.75388
5.82443
6.76389
6.82771
6.87977
7.56592
7.61416
7.65877
8.28129
8.3198
8.33258
8.3534
8.64422
8.66452
8.68119
8.89552
8.91049
8.92229
9.07045
9.08051
9.08504
9.09558
9.25927
9.27014
9.27848
9.38556
9.39305
9.39924
9.47903
9.48472
9.48993
9.56144
9.56589
9.56736
9.56956
9.59919
9.60127
9.60287
9.62266
9.62403
9.62499
9.63606
9.63681
9.6371
9.63759
9.6446
9.64504
9.64522
9.64631
9.64639
9.64639
9.64559
9.64556
9.64557
9.64557
)
;

boundaryField
{
    left
    {
        type            zeroGradient;
    }
    right
    {
        type            zeroGradient;
    }
    interface
    {
        type            fixedValue;
        value           nonuniform List<scalar> 
64
(
3.97282
3.97282
3.97282
3.97282
3.97282
3.97282
3.97282
3.97282
5.73083
5.73083
5.73083
6.81505
6.81505
6.81505
7.6056
7.6056
7.6056
8.32589
8.32589
8.32589
8.32589
8.66105
8.66105
8.66105
8.90767
8.90767
8.90767
9.07804
9.07804
9.07804
9.07804
9.26755
9.26755
9.26755
9.39079
9.39079
9.39079
9.48257
9.48257
9.48257
9.56524
9.56524
9.56524
9.56524
9.59933
9.59933
9.59933
9.62206
9.62206
9.62206
9.63476
9.63476
9.63476
9.63476
9.64284
9.64284
9.64284
9.64405
9.64405
9.64405
9.64309
9.64309
9.64309
9.64309
)
;
    }
    bottom
    {
        type            fixedValue;
        value           uniform 10;
    }
    defaultFaces
    {
        type            empty;
    }
}


// ************************************************************************* //
