/*--------------------------------*- C++ -*----------------------------------*\
| =========                 |                                                 |
| \\      /  F ield         | OpenFOAM: The Open Source CFD Toolbox           |
|  \\    /   O peration     | Version:  5.x                                   |
|   \\  /    A nd           | Web:      www.OpenFOAM.org                      |
|    \\/     M anipulation  |                                                 |
\*---------------------------------------------------------------------------*/
FoamFile
{
    version     2.0;
    format      ascii;
    class       volScalarField;
    location    "11.3";
    object      gradTy;
}
// * * * * * * * * * * * * * * * * * * * * * * * * * * * * * * * * * * * * * //

dimensions      [0 -1 0 1 0 0 0];

internalField   nonuniform List<scalar> 
2048
(
-20.1541
-20.0572
-19.8645
-19.5782
-19.2018
-18.7404
-18.2008
-17.5914
-16.9222
-16.2044
-15.45
-14.6712
-13.8801
-13.0877
-12.3043
-11.5384
-10.7973
-10.0867
-9.41069
-8.77201
-8.17215
-7.61152
-7.08967
-6.60546
-6.15728
-5.74317
-5.36097
-5.00844
-4.68335
-4.38353
-4.10697
-3.85181
-3.61638
-3.3992
-3.19897
-3.01454
-2.84489
-2.68912
-2.54637
-2.41588
-2.29691
-2.18874
-2.09067
-2.00202
-1.92211
-1.85029
-1.78593
-1.7284
-1.67715
-1.63163
-1.59133
-1.55578
-1.52456
-1.49728
-1.47357
-1.45313
-1.43568
-1.42095
-1.40874
-1.39885
-1.39112
-1.38544
-1.3817
-1.37985
-20.2325
-20.1348
-19.9403
-19.6511
-19.2706
-18.8037
-18.2573
-17.6398
-16.9615
-16.234
-15.4697
-14.6813
-13.8811
-13.0805
-12.29
-11.5183
-10.7727
-10.0587
-9.38049
-8.74061
-8.14041
-7.58015
-7.05921
-6.57632
-6.12972
-5.71735
-5.33696
-4.98624
-4.66289
-4.36472
-4.08966
-3.83584
-3.60161
-3.38548
-3.18618
-3.00257
-2.83367
-2.67856
-2.53645
-2.40656
-2.28817
-2.18056
-2.08305
-1.99494
-1.91556
-1.84425
-1.78037
-1.72332
-1.6725
-1.62738
-1.58746
-1.55226
-1.52135
-1.49436
-1.47091
-1.4507
-1.43344
-1.41889
-1.40683
-1.39707
-1.38944
-1.38384
-1.38015
-1.37832
-20.3814
-20.2821
-20.0844
-19.7899
-19.4017
-18.9245
-18.365
-17.7321
-17.0363
-16.2901
-15.5068
-14.6998
-13.8822
-13.0661
-12.2622
-11.4794
-10.7252
-10.0049
-9.3226
-8.68056
-8.07984
-7.52039
-7.00129
-6.52097
-6.07744
-5.66844
-5.29153
-4.94428
-4.62427
-4.32921
-4.057
-3.80574
-3.57377
-3.35962
-3.16206
-2.97999
-2.81247
-2.65863
-2.51769
-2.38893
-2.27162
-2.16508
-2.06862
-1.98154
-1.90317
-1.83283
-1.76988
-1.71371
-1.66372
-1.61938
-1.58017
-1.54562
-1.51531
-1.48885
-1.46589
-1.44611
-1.42924
-1.41502
-1.40324
-1.39371
-1.38629
-1.38083
-1.37724
-1.37546
-20.5925
-20.4912
-20.2891
-19.9874
-19.5886
-19.0969
-18.5189
-17.8637
-17.1428
-16.3696
-15.5587
-14.7249
-13.8824
-13.044
-12.221
-11.4226
-10.6562
-9.92727
-9.23938
-8.59455
-7.99337
-7.43533
-6.91905
-6.44258
-6.00356
-5.59944
-5.22757
-4.88529
-4.57005
-4.27943
-4.01126
-3.7636
-3.53478
-3.3234
-3.12825
-2.94832
-2.78271
-2.63062
-2.49133
-2.36413
-2.24834
-2.1433
-2.04831
-1.96269
-1.88574
-1.81678
-1.75515
-1.70022
-1.6514
-1.60815
-1.56994
-1.53632
-1.50685
-1.48115
-1.45886
-1.43969
-1.42335
-1.40959
-1.39822
-1.38903
-1.38188
-1.37663
-1.37318
-1.37146
-20.8585
-20.755
-20.5479
-20.2377
-19.826
-19.3164
-18.7149
-18.0311
-17.2776
-16.4694
-15.6228
-14.7545
-13.8799
-13.0131
-12.166
-11.348
-10.5666
-9.82707
-9.13259
-8.48469
-7.8834
-7.32757
-6.81523
-6.3439
-5.91082
-5.51305
-5.14766
-4.81176
-4.50259
-4.21761
-3.95452
-3.71135
-3.48646
-3.27847
-3.08629
-2.90896
-2.74568
-2.59574
-2.45845
-2.33317
-2.21927
-2.11609
-2.02295
-1.93916
-1.864
-1.79677
-1.7368
-1.68344
-1.63609
-1.59419
-1.55724
-1.52477
-1.49635
-1.47159
-1.45015
-1.43173
-1.41605
-1.40288
-1.39201
-1.38324
-1.37643
-1.37144
-1.36816
-1.36653
-21.1728
-21.0671
-20.855
-20.5358
-20.1098
-19.5793
-18.9499
-18.2316
-17.4382
-16.587
-15.6968
-14.7863
-13.8731
-12.9723
-12.0965
-11.2556
-10.4568
-9.7052
-9.00354
-8.35271
-7.75196
-7.19936
-6.69222
-6.22742
-5.80168
-5.41168
-5.05416
-4.72595
-4.42408
-4.14581
-3.88872
-3.65081
-3.43044
-3.22635
-3.03754
-2.86317
-2.70255
-2.55504
-2.42004
-2.29697
-2.18525
-2.08424
-1.99328
-1.91165
-1.83861
-1.77343
-1.71541
-1.66389
-1.61827
-1.57797
-1.54249
-1.51137
-1.48417
-1.46051
-1.44005
-1.42251
-1.4076
-1.39511
-1.38482
-1.37655
-1.37014
-1.36546
-1.36239
-1.36086
-21.5293
-21.4218
-21.2052
-20.8773
-20.4364
-19.8829
-19.2217
-18.4629
-17.6224
-16.7201
-15.7782
-14.8183
-13.8601
-12.9202
-12.0118
-11.1449
-10.3269
-9.56228
-8.85329
-8.20002
-7.6008
-7.05271
-6.55218
-6.09536
-5.6784
-5.29756
-4.94923
-4.62995
-4.3365
-4.06591
-3.81563
-3.5836
-3.36824
-3.16842
-2.98326
-2.8121
-2.65436
-2.50949
-2.37699
-2.25635
-2.14704
-2.04846
-1.95996
-1.88078
-1.81016
-1.74731
-1.69151
-1.64207
-1.59838
-1.55989
-1.52606
-1.49645
-1.47062
-1.4482
-1.42884
-1.41226
-1.39822
-1.38648
-1.37685
-1.36914
-1.36319
-1.35885
-1.35602
-1.35462
-21.9223
-21.8138
-21.594
-21.2586
-20.803
-20.2253
-19.5287
-18.7236
-17.8283
-16.8666
-15.8648
-14.8481
-13.8389
-12.8551
-11.9106
-11.0156
-10.1769
-9.39874
-8.68268
-8.02789
-7.43152
-6.88948
-6.39712
-5.94979
-5.54303
-5.17269
-4.83481
-4.52565
-4.24167
-3.97967
-3.7369
-3.51124
-3.30124
-3.1059
-2.92458
-2.75677
-2.60203
-2.45993
-2.33007
-2.21201
-2.10529
-2.00937
-1.92357
-1.84711
-1.77917
-1.71891
-1.66555
-1.6184
-1.57684
-1.54031
-1.5083
-1.48034
-1.456
-1.43492
-1.41675
-1.40123
-1.38811
-1.37719
-1.36828
-1.36118
-1.35573
-1.35179
-1.34922
-1.34795
-22.3461
-22.2378
-22.017
-21.6763
-21.2076
-20.6053
-19.8701
-19.0128
-18.0546
-17.0245
-15.9542
-14.8734
-13.8074
-12.7756
-11.7921
-10.867
-10.0067
-9.21493
-8.49247
-7.83747
-7.24564
-6.7114
-6.22892
-5.79262
-5.39747
-5.0389
-4.71267
-4.41474
-4.14125
-3.88866
-3.65401
-3.43511
-3.23066
-3.03991
-2.86247
-2.69806
-2.54638
-2.40712
-2.27997
-2.16459
-2.06059
-1.96749
-1.88462
-1.81114
-1.74613
-1.68867
-1.63797
-1.59328
-1.55401
-1.51958
-1.4895
-1.46331
-1.44057
-1.4209
-1.40399
-1.38958
-1.37745
-1.3674
-1.35926
-1.35282
-1.34792
-1.34439
-1.34212
-1.34099
-22.7953
-22.6889
-22.4699
-22.1275
-21.6485
-21.0222
-20.2459
-19.3301
-18.3001
-17.1918
-16.0439
-14.8918
-13.7636
-12.68
-11.6553
-10.6988
-9.81637
-9.01114
-8.28334
-7.62984
-7.04459
-6.52019
-6.04938
-5.62567
-5.24345
-4.89786
-4.58442
-4.29878
-4.03675
-3.79437
-3.56834
-3.35645
-3.1576
-2.9714
-2.7978
-2.63675
-2.48813
-2.35172
-2.22729
-2.11462
-2.01342
-1.9233
-1.84357
-1.77331
-1.71146
-1.65702
-1.60914
-1.56706
-1.53019
-1.49798
-1.46994
-1.44561
-1.42455
-1.40637
-1.39077
-1.3775
-1.36639
-1.35725
-1.34991
-1.34418
-1.33986
-1.3368
-1.33483
-1.33386
-23.2642
-23.1619
-22.9488
-22.6095
-22.1246
-21.4763
-20.6568
-19.6757
-18.5637
-17.3663
-16.1314
-14.9005
-13.7052
-12.567
-11.4993
-10.5106
-9.60582
-8.78766
-8.0559
-7.40607
-6.82983
-6.31751
-5.86027
-5.45067
-5.08262
-4.7511
-4.45147
-4.17914
-3.92952
-3.69813
-3.48118
-3.27639
-3.08303
-2.90122
-2.73129
-2.57352
-2.4279
-2.29429
-2.17257
-2.06258
-1.96422
-1.87719
-1.80081
-1.73401
-1.67555
-1.62432
-1.5794
-1.54005
-1.50567
-1.47576
-1.44984
-1.42745
-1.40814
-1.3915
-1.37724
-1.36514
-1.35506
-1.34686
-1.34036
-1.33537
-1.33168
-1.3291
-1.32748
-1.32668
-23.7473
-23.6517
-23.4494
-23.1196
-22.6349
-21.9684
-21.1042
-20.0503
-18.8446
-17.546
-16.2139
-14.8968
-13.6301
-12.4351
-11.3235
-10.3022
-9.37525
-8.54479
-7.81074
-7.16721
-6.60285
-6.10506
-5.66331
-5.26924
-4.91644
-4.59995
-4.31509
-4.05704
-3.8208
-3.60119
-3.39369
-3.19594
-3.00781
-2.83008
-2.66358
-2.50893
-2.36623
-2.23536
-2.11625
-2.00889
-1.91332
-1.82948
-1.75667
-1.69359
-1.63875
-1.59091
-1.54907
-1.51252
-1.4807
-1.45316
-1.42942
-1.40904
-1.39153
-1.37647
-1.36354
-1.35261
-1.34358
-1.33633
-1.33069
-1.32648
-1.32345
-1.3214
-1.32014
-1.31952
-24.239
-24.1531
-23.9675
-23.6552
-23.1791
-22.4999
-21.5905
-20.4553
-19.142
-17.7283
-16.2881
-14.8778
-13.5362
-12.2833
-11.1274
-10.0738
-9.12495
-8.28276
-7.54833
-6.91433
-6.3652
-5.88455
-5.46019
-5.08298
-4.74629
-4.44562
-4.17638
-3.93351
-3.71169
-3.50472
-3.30699
-3.11602
-2.93265
-2.75857
-2.59516
-2.44345
-2.30359
-2.17535
-2.05875
-1.95389
-1.86102
-1.78044
-1.71145
-1.65238
-1.60139
-1.55708
-1.51843
-1.48471
-1.45549
-1.43034
-1.40883
-1.39052
-1.37488
-1.36141
-1.34982
-1.34003
-1.33203
-1.32573
-1.32099
-1.31759
-1.31526
-1.31377
-1.31289
-1.31247
-24.7335
-24.6609
-24.4989
-24.2138
-23.7569
-23.0732
-22.1192
-20.8929
-19.4548
-17.91
-16.3507
-14.8404
-13.4215
-12.1107
-10.911
-9.82589
-8.85546
-8.00177
-7.26904
-6.64853
-6.11856
-5.65776
-5.2526
-4.89338
-4.57339
-4.28913
-4.03626
-3.80942
-3.60312
-3.40982
-3.22215
-3.03743
-2.85814
-2.68715
-2.52642
-2.37749
-2.2404
-2.11467
-2.00045
-1.89789
-1.80753
-1.73025
-1.66539
-1.61068
-1.56375
-1.52312
-1.48771
-1.45684
-1.43022
-1.40749
-1.38823
-1.37204
-1.35832
-1.34647
-1.33616
-1.32747
-1.32048
-1.31514
-1.31132
-1.30876
-1.30718
-1.30628
-1.30581
-1.3056
-25.2252
-25.1697
-25.039
-24.7923
-24.368
-23.691
-22.695
-21.3659
-19.7815
-18.0877
-16.398
-14.7811
-13.284
-11.9169
-10.6746
-9.55915
-8.5676
-7.70183
-6.97299
-6.37094
-5.86481
-5.42647
-5.04219
-4.70191
-4.3988
-4.13137
-3.89552
-3.68545
-3.49593
-3.31759
-3.14024
-2.96086
-2.78473
-2.6162
-2.45763
-2.31133
-2.17703
-2.05366
-1.94167
-1.84118
-1.75299
-1.67905
-1.61872
-1.56877
-1.52613
-1.48928
-1.45716
-1.42908
-1.40503
-1.38472
-1.36773
-1.35371
-1.342
-1.33176
-1.32267
-1.31501
-1.30899
-1.30461
-1.30172
-1.30005
-1.29925
-1.29898
-1.29895
-1.29897
-25.7087
-25.6742
-25.5829
-25.3875
-25.0121
-24.357
-23.3241
-21.8784
-20.1198
-18.2568
-16.4262
-14.6961
-13.1217
-11.7022
-10.4185
-9.2748
-8.26259
-7.38269
-6.65997
-6.08281
-5.60609
-5.19248
-4.83056
-4.50999
-4.22339
-3.97303
-3.75484
-3.56203
-3.39076
-3.22914
-3.06235
-2.88685
-2.71272
-2.54599
-2.38895
-2.24524
-2.11383
-1.99261
-1.88274
-1.78403
-1.69747
-1.62687
-1.57162
-1.52696
-1.48877
-1.4558
-1.42696
-1.40158
-1.38005
-1.36216
-1.3474
-1.33563
-1.32602
-1.3174
-1.30941
-1.30269
-1.29761
-1.29416
-1.29223
-1.2915
-1.29153
-1.29193
-1.29236
-1.29261
-26.1786
-26.169
-26.1257
-25.9956
-25.6885
-25.0754
-24.0146
-22.436
-20.466
-18.4116
-16.4315
-14.5814
-12.9332
-11.4676
-10.1434
-8.97445
-7.9423
-7.0436
-6.32922
-5.78556
-5.345
-4.95753
-4.61922
-4.3191
-4.04782
-3.81465
-3.61481
-3.43935
-3.2881
-3.14564
-2.98971
-2.81577
-2.64227
-2.47675
-2.32038
-2.17937
-2.05118
-1.93178
-1.82396
-1.72675
-1.64093
-1.57365
-1.52429
-1.48556
-1.45191
-1.42287
-1.39734
-1.37443
-1.35536
-1.33989
-1.32731
-1.31786
-1.31051
-1.30353
-1.29645
-1.29053
-1.28636
-1.28383
-1.28288
-1.28314
-1.28405
-1.28515
-1.28608
-1.28658
-26.63
-26.6489
-26.662
-26.6122
-26.3958
-25.8506
-24.7768
-23.0462
-20.8139
-18.5452
-16.4109
-14.432
-12.7169
-11.2152
-9.84957
-8.66019
-7.6096
-6.68299
-5.97928
-5.48091
-5.08475
-4.72311
-4.40955
-4.13082
-3.87239
-3.65662
-3.47607
-3.31726
-3.18818
-3.06842
-2.92376
-2.74771
-2.57331
-2.40873
-2.25179
-2.11384
-1.98953
-1.87131
-1.76565
-1.66971
-1.58321
-1.51923
-1.47691
-1.44496
-1.41574
-1.39068
-1.36847
-1.34771
-1.33103
-1.31801
-1.30747
-1.30045
-1.29559
-1.29026
-1.28381
-1.27855
-1.27525
-1.27363
-1.27369
-1.27499
-1.27684
-1.27869
-1.28014
-1.2809
-27.0584
-27.109
-27.1863
-27.232
-27.1315
-26.6873
-25.6239
-23.7201
-21.1534
-18.6489
-16.3632
-14.2417
-12.4716
-10.9492
-9.53684
-8.33455
-7.26893
-6.298
-5.60763
-5.17107
-4.82953
-4.49025
-4.20273
-3.94705
-3.69694
-3.49912
-3.33944
-3.19515
-3.09096
-2.99902
-2.86632
-2.68234
-2.50561
-2.34229
-2.18277
-2.04871
-1.92945
-1.81122
-1.70812
-1.61344
-1.52394
-1.46328
-1.42973
-1.40563
-1.38039
-1.35938
-1.34059
-1.32141
-1.3071
-1.29663
-1.28785
-1.28339
-1.28139
-1.27776
-1.2715
-1.26672
-1.26432
-1.26355
-1.26466
-1.26709
-1.26993
-1.27257
-1.27456
-1.2756
-27.4598
-27.5446
-27.693
-27.849
-27.8919
-27.5895
-26.5723
-24.4734
-21.4682
-18.7122
-16.2904
-14.0018
-12.1961
-10.6764
-9.20317
-8.00052
-6.92734
-5.88366
-5.21044
-4.85901
-4.58496
-4.25902
-3.99967
-3.77033
-3.52056
-3.34221
-3.20622
-3.0718
-2.99597
-2.93934
-2.81979
-2.61866
-2.43866
-2.2781
-2.11259
-1.98397
-1.87181
-1.75126
-1.65171
-1.55876
-1.46252
-1.40531
-1.38303
-1.36818
-1.34589
-1.32907
-1.31399
-1.29545
-1.28357
-1.2759
-1.26838
-1.26667
-1.26807
-1.26623
-1.25948
-1.25501
-1.25358
-1.25358
-1.25579
-1.25946
-1.26334
-1.2668
-1.26936
-1.27069
-27.8309
-27.9518
-28.1766
-28.4564
-28.6714
-28.5601
-27.6421
-25.33
-21.7323
-18.7226
-16.2005
-13.7
-11.8895
-10.4082
-8.84341
-7.66146
-6.59592
-5.43174
-4.78217
-4.54881
-4.35871
-4.0279
-3.80094
-3.60432
-3.34117
-3.18577
-3.07851
-2.94506
-2.90227
-2.8917
-2.78751
-2.55462
-2.37172
-2.21742
-2.03995
-1.91959
-1.81792
-1.69076
-1.59676
-1.50692
-1.39793
-1.34461
-1.33724
-1.33346
-1.31207
-1.29981
-1.28905
-1.26961
-1.26043
-1.25603
-1.24888
-1.2502
-1.25581
-1.25593
-1.24763
-1.24334
-1.24309
-1.24371
-1.24707
-1.25211
-1.25709
-1.26141
-1.26457
-1.2662
-28.1692
-28.3268
-28.6316
-29.0463
-29.462
-29.5997
-28.8569
-26.3257
-21.9049
-18.6656
-16.1109
-13.3166
-11.551
-10.1628
-8.44684
-7.32106
-6.29212
-4.9289
-4.31537
-4.24605
-4.16148
-3.79268
-3.60671
-3.4546
-3.15485
-3.02953
-2.9599
-2.81143
-2.80826
-2.85899
-2.77428
-2.48659
-2.30378
-2.16253
-1.96265
-1.85544
-1.76984
-1.62838
-1.54362
-1.45993
-1.32851
-1.28024
-1.29294
-1.30266
-1.27849
-1.27162
-1.26639
-1.2435
-1.23764
-1.2374
-1.22906
-1.23385
-1.24483
-1.24722
-1.23574
-1.23161
-1.23292
-1.23389
-1.2385
-1.24507
-1.2512
-1.25641
-1.26018
-1.26212
-28.4729
-28.667
-29.0529
-29.6104
-30.2534
-30.705
-30.2437
-27.5149
-21.9225
-18.525
-16.0547
-12.8209
-11.1795
-9.96879
-7.99367
-6.98324
-6.04307
-4.354
-3.80052
-3.95825
-4.00836
-3.54491
-3.4167
-3.32982
-2.95485
-2.87309
-2.85626
-2.66545
-2.7116
-2.84472
-2.78707
-2.40846
-2.2336
-2.11733
-1.87714
-1.79137
-1.73082
-1.56163
-1.49266
-1.42093
-1.2517
-1.21102
-1.25093
-1.27743
-1.24421
-1.24445
-1.24692
-1.2164
-1.21513
-1.22058
-1.20846
-1.21744
-1.23541
-1.24063
-1.22345
-1.21971
-1.22323
-1.22403
-1.23005
-1.2384
-1.24567
-1.2518
-1.2562
-1.25846
-28.7409
-28.9702
-29.4361
-30.1403
-31.0326
-31.8677
-31.831
-28.9803
-21.6886
-18.284
-16.0874
-12.1645
-10.7747
-9.87024
-7.44991
-6.65197
-5.89022
-3.67405
-3.22636
-3.6952
-3.92064
-3.26969
-3.23024
-3.24338
-2.73005
-2.71601
-2.77698
-2.49873
-2.60922
-2.85298
-2.83607
-2.3105
-2.15975
-2.08823
-1.7777
-1.72719
-1.70591
-1.48635
-1.44425
-1.39476
-1.16352
-1.13556
-1.21227
-1.26014
-1.20761
-1.21822
-1.23206
-1.18714
-1.19284
-1.2065
-1.18634
-1.20071
-1.22786
-1.23688
-1.21015
-1.2075
-1.21426
-1.214
-1.22169
-1.23213
-1.24051
-1.24758
-1.25264
-1.25522
-28.973
-29.2352
-29.7775
-30.6274
-31.7841
-33.072
-33.6453
-30.8471
-21.0586
-17.9263
-16.2986
-11.2715
-10.3363
-9.9342
-6.7602
-6.33128
-5.8959
-2.83853
-2.58083
-3.46904
-3.92846
-2.94262
-3.0464
-3.21573
-2.46285
-2.55789
-2.73658
-2.2986
-2.49733
-2.8883
-2.93621
-2.17766
-2.0808
-2.08535
-1.6554
-1.66274
-1.7028
-1.39581
-1.39871
-1.38872
-1.0579
-1.05238
-1.17832
-1.25411
-1.16602
-1.19279
-1.22399
-1.15387
-1.17067
-1.19656
-1.16158
-1.18337
-1.22254
-1.23705
-1.19492
-1.19482
-1.20642
-1.20357
-1.21341
-1.22635
-1.23571
-1.24376
-1.2495
-1.2524
-29.1696
-29.4616
-30.0744
-31.0637
-32.4906
-34.2933
-35.7054
-33.302
-19.8193
-17.4393
-16.8249
-10.0257
-9.86553
-10.2602
-5.83802
-6.02513
-6.15195
-1.77135
-1.85314
-3.29381
-4.07432
-2.5257
-2.86429
-3.27748
-2.12622
-2.3986
-2.75687
-2.04627
-2.37187
-2.95508
-3.10924
-1.98737
-1.99553
-2.12412
-1.49661
-1.59794
-1.73303
-1.27959
-1.35641
-1.41362
-0.925746
-0.960177
-1.15065
-1.26404
-1.11527
-1.16805
-1.22597
-1.11374
-1.1486
-1.19288
-1.13247
-1.16511
-1.21984
-1.24263
-1.17634
-1.18158
-1.20029
-1.19239
-1.20519
-1.22116
-1.23126
-1.24033
-1.24676
-1.24998
-29.3318
-29.6498
-30.325
-31.4425
-33.1334
-35.4966
-38.0124
-36.6201
-17.6623
-16.8178
-17.8687
-8.25301
-9.36628
-10.9934
-4.55283
-5.73758
-6.79113
-0.359957
-1.03739
-3.18418
-4.4178
-1.96196
-2.68355
-3.47342
-1.67973
-2.23867
-2.86977
-1.71424
-2.22923
-3.05675
-3.38649
-1.70653
-1.90337
-2.22732
-1.28098
-1.53299
-1.81342
-1.12208
-1.31768
-1.48513
-0.753624
-0.858236
-1.13096
-1.2965
-1.04912
-1.14394
-1.24276
-1.06249
-1.12666
-1.19852
-1.09648
-1.1457
-1.22005
-1.25577
-1.15231
-1.16771
-1.19676
-1.17987
-1.19703
-1.21671
-1.22708
-1.23728
-1.24442
-1.24794
-29.4613
-29.8009
-30.5291
-31.7585
-33.6943
-36.636
-40.5351
-41.2003
-14.1493
-16.0702
-19.7201
-5.69868
-8.84713
-12.3401
-2.71345
-5.47309
-8.00153
1.55914
-0.13846
-3.15278
-5.04187
-1.1686
-2.50515
-3.86762
-1.06443
-2.07985
-3.12073
-1.26293
-2.06761
-3.19416
-3.81265
-1.28773
-1.80495
-2.42767
-0.978831
-1.46855
-1.9681
-0.900461
-1.28289
-1.62548
-0.522056
-0.747148
-1.12074
-1.36062
-0.958481
-1.12054
-1.28115
-0.993913
-1.10504
-1.21782
-1.04995
-1.1251
-1.22337
-1.27948
-1.11981
-1.15333
-1.19703
-1.16517
-1.18902
-1.21318
-1.22308
-1.23458
-1.24245
-1.24626
-29.56
-29.9167
-30.6872
-32.0087
-34.1569
-37.6564
-43.1888
-47.611
-8.66759
-15.2267
-22.7844
-1.99836
-8.32476
-14.5888
-0.0474444
-5.23707
-10.0444
4.21913
0.819162
-3.20575
-6.06096
-0.0284644
-2.33253
-4.5497
-0.196398
-1.92598
-3.57302
-0.636323
-1.8892
-3.36321
-4.45052
-0.664461
-1.70295
-2.77095
-0.547926
-1.40616
-2.2308
-0.582355
-1.25255
-1.8656
-0.203281
-0.629847
-1.12081
-1.46899
-0.830486
-1.09825
-1.35065
-0.899148
-1.08421
-1.2568
-0.987625
-1.10365
-1.22963
-1.31795
-1.07455
-1.13878
-1.2028
-1.14699
-1.18128
-1.21081
-1.21911
-1.23223
-1.24081
-1.2449
-29.6302
-29.9994
-30.8012
-32.1921
-34.5082
-38.4964
-45.8061
-56.6473
-0.376352
-14.3508
-27.6133
3.35675
-7.82862
-18.1331
3.82382
-5.03697
-13.2759
7.94644
1.77878
-3.33568
-7.63129
1.62027
-2.1731
-5.64222
1.04119
-1.78419
-4.31266
0.243621
-1.70335
-3.55135
-5.38715
0.25481
-1.60324
-3.31972
0.0705761
-1.34867
-2.64771
-0.122825
-1.22735
-2.24768
0.241541
-0.513105
-1.13053
-1.63874
-0.647359
-1.07791
-1.46424
-0.765852
-1.06507
-1.32365
-0.902179
-1.08239
-1.23814
-1.37691
-1.01061
-1.12479
-1.21626
-1.1235
-1.17411
-1.20989
-1.2149
-1.23021
-1.23946
-1.2438
-29.6746
-30.0518
-30.8738
-32.3104
-34.7412
-39.096
-48.0991
-69.4022
11.8585
-13.5541
-34.9422
11.0615
-7.40719
-23.5
9.41453
-4.88368
-18.1722
13.1896
2.63445
-3.51145
-9.96359
3.99638
-2.04025
-7.30934
2.80742
-1.66659
-5.45426
1.4837
-1.5311
-3.73275
-6.74123
1.5936
-1.51632
-4.1575
0.956813
-1.30096
-3.28077
0.539061
-1.2084
-2.82817
0.865766
-0.409537
-1.14663
-1.89297
-0.385055
-1.0611
-1.63931
-0.577189
-1.04915
-1.42919
-0.783516
-1.06341
-1.24727
-1.46416
-0.919914
-1.11265
-1.24031
-1.09213
-1.16801
-1.21074
-1.2101
-1.22849
-1.2383
-1.24289
-29.6956
-30.0767
-30.9085
-32.3673
-34.8553
-39.4079
-49.61
-87.3499
29.5402
-13.0145
-45.7296
22.0441
-7.13623
-31.3805
17.4078
-4.79366
-25.3583
20.5535
3.20873
-3.6643
-13.3387
7.3897
-1.95598
-9.76643
5.31439
-1.59239
-7.14751
3.22749
-1.41125
-3.86202
-8.67226
3.51546
-1.45929
-5.39367
2.21749
-1.27095
-4.21153
1.48396
-1.19762
-3.68146
1.74102
-0.340575
-1.162
-2.2628
-0.0121426
-1.05084
-1.89909
-0.311258
-1.03956
-1.58812
-0.618773
-1.05121
-1.25486
-1.5909
-0.792676
-1.10549
-1.2796
-1.05053
-1.165
-1.21496
-1.20549
-1.22837
-1.23854
-1.24339
)
;

boundaryField
{
    left
    {
        type            calculated;
        value           nonuniform List<scalar> 
32
(
-20.1541
-20.2325
-20.3814
-20.5925
-20.8585
-21.1728
-21.5293
-21.9223
-22.3461
-22.7953
-23.2642
-23.7473
-24.239
-24.7335
-25.2252
-25.7087
-26.1786
-26.63
-27.0584
-27.4598
-27.8309
-28.1692
-28.4729
-28.7409
-28.973
-29.1696
-29.3318
-29.4613
-29.56
-29.6302
-29.6746
-29.6956
)
;
    }
    right
    {
        type            calculated;
        value           nonuniform List<scalar> 
32
(
-1.37985
-1.37832
-1.37546
-1.37146
-1.36653
-1.36086
-1.35462
-1.34795
-1.34099
-1.33386
-1.32668
-1.31952
-1.31247
-1.3056
-1.29897
-1.29261
-1.28658
-1.2809
-1.2756
-1.27069
-1.2662
-1.26212
-1.25846
-1.25522
-1.2524
-1.24998
-1.24794
-1.24626
-1.2449
-1.2438
-1.24289
-1.24339
)
;
    }
    interface
    {
        type            calculated;
        value           nonuniform List<scalar> 
64
(
-29.7007
-30.0827
-30.9168
-32.381
-34.8831
-39.4873
-50.1005
-97.8328
39.9562
-12.8361
-52.1231
28.4871
-7.04982
-36.0468
22.1022
-4.76693
-29.6122
24.8522
3.39808
-3.72354
-15.327
9.3818
-1.92935
-11.2229
6.78324
-1.56907
-8.15316
4.24583
-1.37061
-3.9065
-9.8048
4.64538
-1.44087
-6.12679
2.9566
-1.26159
-4.76288
2.03859
-1.19459
-4.18685
2.25162
-0.318088
-1.16835
-2.48108
0.20638
-1.04786
-2.05348
-0.155918
-1.03687
-1.68308
-0.52312
-1.04758
-1.25799
-1.66583
-0.718631
-1.10373
-1.30382
-1.02695
-1.16469
-1.21826
-1.20348
-1.22904
-1.23932
-1.24431
)
;
    }
    bottom
    {
        type            calculated;
        value           nonuniform List<scalar> 
64
(
-20.1337
-20.037
-19.8448
-19.5592
-19.1839
-18.724
-18.1861
-17.5788
-16.9119
-16.1967
-15.4448
-14.6686
-13.8798
-13.0895
-12.3079
-11.5436
-10.8037
-10.094
-9.41853
-8.78017
-8.18041
-7.61969
-7.09761
-6.61306
-6.16448
-5.74991
-5.36724
-5.01424
-4.6887
-4.38846
-4.11151
-3.85599
-3.62025
-3.40279
-3.20232
-3.01767
-2.84783
-2.69188
-2.54897
-2.41832
-2.2992
-2.19088
-2.09267
-2.00387
-1.92383
-1.85187
-1.78738
-1.72973
-1.67837
-1.63274
-1.59234
-1.5567
-1.5254
-1.49804
-1.47427
-1.45377
-1.43626
-1.42149
-1.40924
-1.39931
-1.39156
-1.38586
-1.38211
-1.38025
)
;
    }
    defaultFaces
    {
        type            empty;
    }
}


// ************************************************************************* //
