/*--------------------------------*- C++ -*----------------------------------*\
| =========                 |                                                 |
| \\      /  F ield         | OpenFOAM: The Open Source CFD Toolbox           |
|  \\    /   O peration     | Version:  5.x                                   |
|   \\  /    A nd           | Web:      www.OpenFOAM.org                      |
|    \\/     M anipulation  |                                                 |
\*---------------------------------------------------------------------------*/
FoamFile
{
    version     2.0;
    format      ascii;
    class       volScalarField;
    location    "11.3";
    object      gradTx;
}
// * * * * * * * * * * * * * * * * * * * * * * * * * * * * * * * * * * * * * //

dimensions      [0 -1 0 1 0 0 0];

internalField   nonuniform List<scalar> 
2048
(
0.0222199
0.066413
0.109843
0.151933
0.192025
0.22939
0.263268
0.292931
0.317753
0.337287
0.3513
0.359799
0.363015
0.361367
0.355417
0.345816
0.333259
0.318444
0.302035
0.28464
0.266791
0.248932
0.23142
0.214524
0.198436
0.183281
0.169127
0.155995
0.143866
0.132694
0.122412
0.112938
0.104189
0.0960808
0.0885382
0.0814956
0.0748995
0.0687077
0.0628888
0.0574206
0.0522879
0.0474809
0.0429923
0.0388159
0.0349445
0.0313694
0.0280793
0.025061
0.0222994
0.0197783
0.0174806
0.015389
0.0134859
0.0117542
0.0101769
0.00873801
0.00742181
0.00621344
0.00509847
0.00406278
0.00309228
0.00217277
0.00128968
0.000427694
0.065892
0.196966
0.325834
0.450807
0.569932
0.681022
0.781778
0.869984
0.943739
1.00167
1.0431
1.06803
1.07719
1.07186
1.05373
1.02477
0.987071
0.942722
0.893711
0.841848
0.788713
0.735624
0.683629
0.63352
0.585858
0.541001
0.499141
0.460332
0.424515
0.391544
0.361213
0.333277
0.30748
0.283573
0.261329
0.240554
0.221089
0.20281
0.185626
0.169473
0.154308
0.140103
0.126839
0.114498
0.103061
0.092501
0.0827856
0.0738751
0.0657245
0.0582856
0.0515074
0.0453384
0.0397267
0.0346211
0.0299718
0.0257308
0.0218521
0.0182917
0.0150072
0.011957
0.00909968
0.0063934
0.00379554
0.00125916
0.108192
0.323476
0.535326
0.741033
0.937388
1.12072
1.28711
1.43273
1.55431
1.6495
1.71711
1.75722
1.7711
1.76095
1.72969
1.68064
1.61732
1.54323
1.46167
1.37565
1.28777
1.2002
1.11463
1.03234
0.954214
0.880809
0.812415
0.749097
0.690737
0.637078
0.587759
0.542363
0.500452
0.461608
0.425452
0.391665
0.359988
0.33022
0.302218
0.275879
0.251141
0.227964
0.206321
0.186188
0.167535
0.150321
0.134492
0.119981
0.106714
0.0946102
0.0835866
0.0735578
0.0644383
0.0561441
0.0485933
0.0417074
0.0354114
0.0296339
0.0243061
0.0193608
0.0147307
0.0103481
0.00614457
0.00203949
0.149402
0.44683
0.739906
1.02503
1.29778
1.55291
1.78469
1.98749
2.15644
2.28806
2.38066
2.43442
2.45127
2.43451
2.38838
2.31769
2.22746
2.12263
2.00787
1.88739
1.7648
1.64308
1.52453
1.41084
1.30319
1.20229
1.10848
1.0218
0.942066
0.868871
0.801685
0.739893
0.682864
0.629997
0.580761
0.53471
0.491492
0.450839
0.41256
0.376526
0.342661
0.310922
0.281284
0.253721
0.228197
0.204658
0.183026
0.163211
0.145107
0.128601
0.113577
0.099916
0.0875002
0.0762134
0.0659424
0.056579
0.0480208
0.0401705
0.0329352
0.0262237
0.0199451
0.0140074
0.00831765
0.0027616
0.189679
0.567541
0.940565
1.30445
1.65356
1.98096
2.27885
2.53941
2.75585
2.92338
3.03975
3.10535
3.12297
3.09719
3.03381
2.93925
2.82014
2.68298
2.53381
2.37808
2.22042
2.06458
1.91341
1.76898
1.63264
1.50523
1.38708
1.2782
1.17827
1.08673
1.00284
0.925774
0.854668
0.788728
0.727264
0.669709
0.615624
0.564683
0.516657
0.471402
0.428837
0.388927
0.351658
0.317012
0.284953
0.255413
0.228292
0.203472
0.180813
0.160171
0.141396
0.124336
0.108842
0.094765
0.081961
0.0702933
0.059633
0.0498592
0.040857
0.0325139
0.0247173
0.0173521
0.0103027
0.00342125
0.229062
0.685773
1.13773
1.58018
2.00634
2.40736
2.77298
3.09269
3.35734
3.56052
3.69937
3.77469
3.79038
3.75264
3.66904
3.54782
3.39736
3.22575
3.04054
2.84843
2.65506
2.46494
2.2814
2.10676
1.94253
1.78955
1.64814
1.5182
1.39928
1.29063
1.19126
1.10008
1.01597
0.937929
0.865099
0.796799
0.732512
0.671864
0.614602
0.560574
0.509709
0.461994
0.417438
0.376043
0.337774
0.302551
0.270252
0.240724
0.213795
0.189284
0.167009
0.146787
0.128434
0.111772
0.0966248
0.0828277
0.070227
0.0586801
0.048053
0.0382146
0.0290326
0.0203712
0.0120926
0.00401597
0.267468
0.801345
1.33131
1.85247
2.35698
2.83385
3.26978
3.6509
3.96504
4.20381
4.36375
4.44629
4.45687
4.40368
4.29638
4.14525
3.96051
3.75199
3.52876
3.29886
3.06898
2.84431
2.62858
2.42427
2.23292
2.05532
1.89171
1.74188
1.60521
1.48071
1.36712
1.26302
1.16701
1.07785
0.994512
0.91621
0.842364
0.772568
0.706555
0.644176
0.585382
0.530198
0.478674
0.430842
0.386676
0.346084
0.308914
0.274975
0.244058
0.215945
0.19042
0.167269
0.146279
0.127237
0.109936
0.0941843
0.079803
0.0666314
0.0545192
0.0433203
0.0328855
0.0230596
0.0136841
0.00454457
0.304708
0.913753
1.52069
2.12092
2.70564
3.26147
3.77137
4.2171
4.58261
4.85709
5.0365
5.12332
5.12507
5.05241
4.91748
4.73279
4.51054
4.26233
3.99886
3.72959
3.46229
3.20277
2.95505
2.72163
2.50396
2.3027
2.11797
1.94942
1.79624
1.6572
1.53069
1.41492
1.30814
1.20884
1.11583
1.02824
0.945456
0.867042
0.792731
0.72239
0.656003
0.593651
0.535449
0.481473
0.431714
0.386062
0.344326
0.306272
0.271645
0.240191
0.211663
0.185815
0.162405
0.141186
0.121921
0.104385
0.0883783
0.0737253
0.0602633
0.0478349
0.0362771
0.0254172
0.0150765
0.00500676
0.340482
1.02218
1.70474
2.38447
3.05184
3.69072
4.2794
4.79401
5.21343
5.52384
5.72078
5.80837
5.79695
5.7003
5.53344
5.31126
5.04801
4.75709
4.45096
4.14061
3.83494
3.54034
3.26091
2.99903
2.75589
2.53196
2.32718
2.14107
1.97266
1.82043
1.68236
1.5562
1.43978
1.33132
1.22945
1.13326
1.04211
0.955571
0.873386
0.795436
0.721754
0.652498
0.587875
0.528029
0.472971
0.422562
0.376565
0.334688
0.296626
0.262088
0.230795
0.202476
0.17686
0.153666
0.13262
0.113466
0.0959835
0.0799851
0.0653016
0.0517689
0.0392135
0.027447
0.0162712
0.00540293
0.374396
1.12551
1.8819
2.6415
3.39443
4.12148
4.79516
5.38419
5.86076
6.20733
6.41935
6.50351
6.47391
6.34826
6.14482
5.88104
5.57315
5.23637
4.88499
4.53177
4.18683
3.857
3.5463
3.25671
2.98904
2.74343
2.51969
2.3172
2.13483
1.97079
1.82259
1.68737
1.56246
1.44577
1.33581
1.23165
1.13267
1.03847
0.948804
0.863566
0.782843
0.706901
0.636078
0.570617
0.510546
0.455687
0.405733
0.360322
0.319094
0.281718
0.247891
0.21732
0.189707
0.164736
0.142089
0.121477
0.10266
0.0854425
0.0696568
0.0551373
0.0417041
0.0291547
0.017271
0.00573391
0.405967
1.22238
2.05012
2.88975
3.7316
4.55315
5.31968
5.99015
6.52784
6.91068
7.13467
7.21031
7.15679
6.99664
6.75179
6.44221
6.08601
5.70009
5.30072
4.90277
4.51773
4.15275
3.8114
3.49502
3.20383
2.93758
2.69592
2.47817
2.28313
2.10872
1.95188
1.80898
1.67674
1.55272
1.43538
1.32381
1.2175
1.11607
1.01929
0.927048
0.839495
0.757034
0.680195
0.609353
0.544553
0.485552
0.431949
0.383292
0.339159
0.299183
0.26304
0.230426
0.20102
0.174467
0.150397
0.128478
0.108456
0.0901353
0.0733561
0.0579587
0.0437608
0.0305472
0.0180797
0.00600085
0.434643
1.31117
2.20696
3.1264
4.06089
4.98455
5.85374
6.61452
7.21813
7.63699
7.86888
7.92988
7.84586
7.64531
7.35411
6.9946
6.58649
6.14808
5.69779
5.25317
4.82738
4.42757
4.05645
3.7144
3.40079
3.11493
2.85635
2.62443
2.41797
2.23469
2.0708
1.92168
1.78323
1.65275
1.52865
1.41017
1.29697
1.18872
1.08515
0.986173
0.891952
0.803076
0.720357
0.644356
0.575117
0.51229
0.455349
0.403733
0.356945
0.314591
0.276339
0.241878
0.210878
0.182937
0.157617
0.134536
0.113426
0.0941051
0.0764291
0.060253
0.0453965
0.0316325
0.0187014
0.0062051
0.459826
1.39013
2.34963
3.34803
4.37914
5.41392
6.39798
7.26018
7.93536
8.38935
8.62383
8.66282
8.54084
8.29365
7.95121
7.53787
7.07446
6.58015
6.07574
5.58242
5.11545
4.68151
4.2818
3.91539
3.58055
3.27608
3.00153
2.75642
2.53974
2.34914
2.17996
2.02614
1.88262
1.74642
1.61609
1.49113
1.37143
1.25674
1.14672
1.04124
0.940464
0.845204
0.756689
0.675741
0.602365
0.536042
0.476084
0.42179
0.372586
0.328063
0.287887
0.251763
0.219363
0.190231
0.163833
0.139724
0.117631
0.097396
0.0789068
0.062041
0.0466245
0.032419
0.0191407
0.00634812
0.480894
1.45738
2.47506
3.55073
4.68243
5.83886
6.95288
7.9305
8.68377
9.17089
9.40104
9.40923
9.24084
8.94057
8.54225
8.07153
7.54983
6.99618
6.43403
5.88982
5.38158
4.91466
4.48789
4.09865
3.74386
3.42172
3.13204
2.8746
2.64881
2.45253
2.28
2.12313
1.97558
1.83434
1.6982
1.56706
1.44123
1.32046
1.20432
1.09258
0.985299
0.883584
0.789296
0.703615
0.62643
0.556959
0.494315
0.437623
0.386225
0.33972
0.297789
0.260168
0.226557
0.196438
0.169135
0.144119
0.121129
0.100053
0.0808202
0.0633429
0.0474583
0.032915
0.0194025
0.00643143
0.497239
1.51104
2.58
3.73007
4.96606
6.25617
7.51878
8.62952
9.46828
9.98471
10.2017
10.1687
9.94433
9.58455
9.12617
8.59504
8.01267
7.39621
6.77201
6.17448
5.62538
5.12723
4.67525
4.265
3.89159
3.55259
3.2485
2.97943
2.74549
2.54527
2.37163
2.21346
2.06285
1.9171
1.77543
1.6383
1.50667
1.3802
1.25827
1.14051
1.02674
0.91837
0.818255
0.728077
0.647452
0.575201
0.510214
0.451399
0.398006
0.349689
0.306149
0.267173
0.232539
0.201649
0.173619
0.147803
0.123984
0.102121
0.082199
0.064178
0.0479105
0.033129
0.0194916
0.00645664
0.508301
1.54931
2.66118
3.88125
5.22449
6.66174
8.09584
9.36228
10.2947
10.8338
11.0264
10.9401
10.6491
10.2237
9.70175
9.10776
8.46334
7.78059
7.08889
6.43524
5.84647
5.31958
4.84455
4.41537
4.02472
3.66949
3.3516
3.07137
2.82996
2.62766
2.45558
2.29806
2.14516
1.99528
1.8482
1.70513
1.56802
1.43627
1.30887
1.18542
1.06509
0.949686
0.843602
0.749213
0.665578
0.59093
0.523963
0.463295
0.408076
0.358096
0.313069
0.27285
0.237378
0.205961
0.177387
0.150857
0.126256
0.103643
0.0830712
0.0645639
0.0479932
0.0330693
0.0194129
0.00642542
0.513602
1.57057
2.71541
3.99918
5.45128
7.05026
8.68393
10.1352
11.1701
11.7206
11.8753
11.7221
11.3521
10.8557
10.2677
9.60898
8.90258
8.15008
7.38369
6.67057
6.04452
5.49231
4.99654
4.55082
4.14436
3.7732
3.44204
3.15089
2.90228
2.69991
2.53272
2.37795
2.22321
2.06943
1.91693
1.76776
1.62553
1.48894
1.35641
1.22768
1.10069
0.977621
0.865314
0.767103
0.680972
0.604315
0.535752
0.473497
0.416576
0.36507
0.318651
0.277256
0.241134
0.209474
0.180553
0.153365
0.128003
0.104661
0.083462
0.0645163
0.0477179
0.0327444
0.0191717
0.00633952
0.512785
1.57353
2.7398
4.07866
5.63911
7.41493
9.28235
10.9567
12.1029
12.6469
12.748
12.5128
12.0493
11.4783
10.823
10.0977
9.33172
8.50617
7.65506
6.87839
6.2193
5.64633
5.13198
4.67259
4.2518
3.86446
3.52061
3.21853
2.96229
2.76205
2.60403
2.45435
2.29767
2.14008
1.982
1.82626
1.67942
1.5385
1.40112
1.26776
1.13397
1.00221
0.883293
0.781826
0.693823
0.615518
0.545782
0.482202
0.423639
0.370737
0.323
0.280433
0.243847
0.212297
0.183242
0.155407
0.129279
0.105215
0.0833933
0.0640481
0.0470955
0.0321629
0.0187735
0.00620082
0.505644
1.55728
2.73192
4.11461
5.77978
7.74709
9.88952
11.8378
13.1038
13.6128
13.6433
13.3103
12.7354
12.0889
11.3665
10.5724
9.75288
8.85131
7.90111
7.05587
6.37086
5.78301
5.25156
4.78205
4.34849
3.94387
3.58819
3.27492
3.00956
2.81383
2.67072
2.52868
2.36903
2.20774
2.0438
1.88061
1.72989
1.58526
1.44315
1.30616
1.16544
1.0234
0.897334
0.793473
0.704362
0.624686
0.554264
0.489623
0.429374
0.375226
0.326228
0.282393
0.245536
0.21455
0.185597
0.157055
0.130129
0.105343
0.0828831
0.0631697
0.0461366
0.0313337
0.018224
0.00601133
0.492143
1.5214
2.68998
4.10227
5.86433
8.03576
10.5022
12.7932
14.1861
14.6156
14.5596
14.1128
13.4034
12.6852
11.8982
11.0305
10.1692
9.18939
8.11904
7.19908
6.49973
5.90439
5.35566
4.88078
4.43617
4.01171
3.64581
3.32093
3.04324
2.85465
2.73431
2.60267
2.43755
2.27287
2.10277
1.93052
1.77714
1.62956
1.48249
1.34351
1.19574
1.04103
0.907093
0.802175
0.712884
0.631926
0.561424
0.495997
0.433854
0.378672
0.328466
0.283117
0.246184
0.216373
0.187786
0.158368
0.130592
0.105084
0.0819442
0.0618884
0.0448524
0.0302666
0.0175297
0.00577323
0.472432
1.46603
2.61302
4.03758
5.8833
8.2672
11.1147
13.8425
15.3668
15.6479
15.4949
14.92
14.0435
13.266
12.4189
11.4677
10.5852
9.52637
8.3047
7.30267
6.60724
6.01341
5.44405
4.97062
4.51698
4.06772
3.69471
3.35779
3.06197
2.88338
2.79682
2.67849
2.503
2.33598
2.15949
1.97539
1.82145
1.67184
1.5189
1.38055
1.22578
1.05474
0.91204
0.808136
0.719776
0.637271
0.567507
0.5016
0.437089
0.38122
0.329876
0.282542
0.245731
0.217935
0.190009
0.159379
0.130697
0.104483
0.0805833
0.0602084
0.0432555
0.0289722
0.0166971
0.00548891
0.446846
1.39186
2.50104
3.91749
5.82701
8.42441
11.7169
15.0124
16.6677
16.6951
16.4476
15.7335
14.642
13.8309
12.9312
11.8762
11.0074
9.87115
8.45186
7.35935
6.696
6.11428
5.5153
5.0538
4.59363
4.11075
3.73647
3.38736
3.06368
2.89811
2.861
2.7589
2.56442
2.39765
2.21478
2.01414
1.86323
1.71274
1.5517
1.41825
1.25675
1.06394
0.91141
0.811691
0.725561
0.640625
0.572794
0.506768
0.438991
0.383034
0.330673
0.280542
0.244056
0.219451
0.192513
0.160081
0.130459
0.103592
0.0787977
0.0581304
0.0413606
0.0274622
0.0157338
0.00516097
0.415889
1.30019
2.35511
3.7403
5.68621
8.48685
12.2924
16.3386
18.1176
17.7313
17.4177
16.5592
15.1788
14.3823
13.4407
12.2433
11.4449
10.2366
8.55128
7.35927
6.77056
6.21292
5.56606
5.13317
4.66981
4.13816
3.77323
3.41241
3.04532
2.89597
2.93059
2.84747
2.61965
2.45865
2.2699
2.0449
1.90313
1.75318
1.57957
1.45785
1.29032
1.06765
0.904131
0.813375
0.730944
0.641672
0.577625
0.511936
0.43932
0.384317
0.331158
0.276907
0.240956
0.2212
0.195607
0.160401
0.129886
0.102481
0.0765714
0.0556521
0.0391868
0.0257489
0.0146474
0.00479227
0.380212
1.19279
2.17738
3.50603
5.45275
8.43038
12.8149
17.8688
19.7544
18.7138
18.4083
17.4091
15.6246
14.9264
13.9575
12.5482
11.9107
10.6413
8.5893
7.28945
6.83827
6.31757
5.58986
5.21259
4.75056
4.1451
3.80791
3.4371
3.00259
2.87264
3.01076
2.9489
2.66474
2.52019
2.32681
2.06469
1.94224
1.7946
1.60023
1.50102
1.32881
1.06437
0.888759
0.814025
0.736887
0.63976
0.582438
0.517682
0.437602
0.385335
0.331751
0.271319
0.236122
0.223551
0.199681
0.160168
0.128983
0.101249
0.0738685
0.0527685
0.0367592
0.0238454
0.013446
0.00438601
0.340582
1.07191
1.97104
3.21665
5.12049
8.22762
13.2438
19.6672
21.629
19.5756
19.4289
18.3049
15.9361
15.4753
14.4982
12.7582
12.423
11.111
8.54614
7.13295
6.91036
6.43952
5.57556
5.2975
4.84294
4.12337
3.84463
3.46744
2.92953
2.822
3.10856
3.06941
2.69311
2.5842
2.3885
2.06885
1.9823
1.83914
1.60993
1.55002
1.37536
1.05183
0.863396
0.814904
0.744685
0.633725
0.587829
0.5248
0.433021
0.38645
0.333046
0.263311
0.229111
0.226997
0.205234
0.159069
0.127757
0.100038
0.0706226
0.0494739
0.0341114
0.021764
0.0121383
0.00394578
0.297835
0.940086
1.74023
2.87629
4.68643
7.84915
13.5179
21.8182
23.8098
20.2153
20.4994
19.2818
16.0495
16.0501
15.0891
12.8232
13.0072
11.6813
8.39352
6.86818
7.00331
6.59416
5.50525
5.39576
4.9569
4.05997
3.88925
3.512
2.81805
2.73546
3.23357
3.21723
2.69437
2.65381
2.45947
2.05029
2.02608
1.89006
1.60283
1.60797
1.43427
1.02679
0.825614
0.817846
0.756084
0.621667
0.594643
0.53439
0.424272
0.38818
0.335866
0.252221
0.219307
0.232196
0.212908
0.156585
0.126239
0.0990467
0.0667221
0.0457647
0.0312886
0.0195152
0.0107331
0.00347561
0.252839
0.800068
1.48981
2.49121
4.15176
7.26566
13.5473
24.433
26.3892
20.4841
21.6559
20.3942
15.8721
16.6848
15.7695
12.6687
13.6994
12.4001
8.09175
6.46818
7.14031
6.80212
5.35141
5.51885
5.10638
3.93514
3.95019
3.58261
2.65739
2.60137
3.39861
3.40338
2.65295
2.73397
2.54634
1.99851
2.07783
1.95212
1.5702
1.6792
1.51128
0.984598
0.772386
0.825436
0.773411
0.600643
0.604099
0.547973
0.409364
0.391271
0.341336
0.237134
0.205885
0.240016
0.223525
0.151917
0.124512
0.0985557
0.06199
0.0416452
0.0283509
0.0171053
0.00923976
0.00297999
0.206452
0.654652
1.22515
2.06969
3.52298
6.45159
13.2032
27.6553
29.4913
20.169
22.9586
21.7215
15.2711
17.4315
16.5969
12.187
14.5498
13.3308
7.58611
5.90007
7.353
7.09095
5.07347
5.68343
5.31067
3.71986
4.0394
3.69522
2.43349
2.40416
3.62049
3.64245
2.54611
2.83234
2.65852
1.8983
2.14389
2.03219
1.49931
1.7697
1.61393
0.918831
0.700041
0.841191
0.799745
0.566294
0.61796
0.567632
0.385368
0.396803
0.350957
0.216811
0.187766
0.251589
0.238137
0.143882
0.122744
0.098947
0.0561561
0.0371359
0.0253765
0.0145328
0.0076685
0.00246385
0.159484
0.506554
0.951801
1.62159
2.81262
5.39047
12.3048
31.6694
33.2827
18.9723
24.5019
23.3761
14.0598
18.3669
17.6524
11.2256
15.6277
14.5553
6.80252
5.12473
7.68319
7.49692
4.61344
5.91348
5.59607
3.37275
4.17377
3.87074
2.12826
2.12348
3.92098
3.95374
2.34173
2.96042
2.80916
1.7281
2.23349
2.13989
1.37213
1.88776
1.75197
0.820728
0.604249
0.869758
0.839124
0.512371
0.638758
0.59619
0.348104
0.40633
0.36669
0.189609
0.163576
0.268371
0.258089
0.130798
0.121251
0.100729
0.0488232
0.032287
0.0224651
0.0117846
0.00603077
0.00193228
0.11267
0.358295
0.675226
1.15785
2.03957
4.08258
10.6041
36.7081
37.9849
16.4865
26.4278
25.5122
11.9804
19.601
19.0479
9.57419
17.0286
16.1779
5.6425
4.0969
8.1845
8.06748
3.8907
6.24281
5.99785
2.83637
4.37692
4.1359
1.71891
1.73323
4.32763
4.36261
1.99548
3.13496
3.01607
1.4581
2.35966
2.28846
1.16376
2.04469
1.93775
0.678594
0.480063
0.917099
0.896804
0.430175
0.67007
0.637396
0.291765
0.422058
0.391029
0.153388
0.131602
0.292202
0.285084
0.110331
0.120567
0.104558
0.0394237
0.0271963
0.0197398
0.00883056
0.00434037
0.00139012
0.0666499
0.212112
0.400503
0.689724
1.22853
2.55502
7.767
43.0614
43.8895
12.1657
28.9406
28.3348
8.68433
21.2863
20.9339
6.94844
18.8817
18.3283
3.97743
2.76576
8.92382
8.86409
2.79593
6.7183
6.56237
2.03274
4.68131
4.52398
1.17715
1.20053
4.87473
4.90211
1.44758
3.37966
3.30291
1.04785
2.54045
2.49566
0.840502
2.25583
2.18664
0.477108
0.322016
0.990644
0.979558
0.307898
0.716865
0.696152
0.208473
0.447073
0.427082
0.10541
0.0897528
0.325364
0.321268
0.0793308
0.121537
0.111262
0.0271697
0.0220339
0.0173487
0.00561695
0.00261489
0.000841172
0.0219546
0.0698954
0.132094
0.227958
0.408432
0.874608
3.35336
51.0852
51.376
5.29218
32.3261
32.1106
3.70903
23.6304
23.5081
2.97224
21.3596
21.1647
1.64237
1.07621
9.98233
9.96552
1.18424
7.40355
7.34945
0.858457
5.13103
5.07541
0.468549
0.484748
5.60406
5.61487
0.619122
3.72723
3.70034
0.443671
2.80025
2.78484
0.357802
2.54167
2.51739
0.19656
0.124316
1.0994
1.09604
0.129884
0.785909
0.778743
0.0877726
0.485617
0.478619
0.0422358
0.0355333
0.370632
0.369325
0.0336331
0.125435
0.121852
0.0109954
0.0170732
0.015463
0.00205946
0.000877797
0.000287058
)
;

boundaryField
{
    left
    {
        type            calculated;
        value           uniform 0;
    }
    right
    {
        type            calculated;
        value           uniform 0;
    }
    interface
    {
        type            calculated;
        value           nonuniform List<scalar> 
64
(
0.0219546
0.0698954
0.132094
0.227958
0.408432
0.874608
3.35336
51.0852
51.376
5.29218
32.3261
32.1106
3.70903
23.6304
23.5081
2.97224
21.3596
21.1647
1.64237
1.07621
9.98233
9.96552
1.18424
7.40355
7.34945
0.858457
5.13103
5.07541
0.468549
0.484748
5.60406
5.61487
0.619122
3.72723
3.70034
0.443671
2.80025
2.78484
0.357802
2.54167
2.51739
0.19656
0.124316
1.0994
1.09604
0.129884
0.785909
0.778743
0.0877726
0.485617
0.478619
0.0422358
0.0355333
0.370632
0.369325
0.0336331
0.125435
0.121852
0.0109954
0.0170732
0.015463
0.00205946
0.000877797
0.000287058
)
;
    }
    bottom
    {
        type            calculated;
        value           nonuniform List<scalar> 
64
(
0.0222199
0.066413
0.109843
0.151933
0.192025
0.22939
0.263268
0.292931
0.317753
0.337287
0.3513
0.359799
0.363015
0.361367
0.355417
0.345816
0.333259
0.318444
0.302035
0.28464
0.266791
0.248932
0.23142
0.214524
0.198436
0.183281
0.169127
0.155995
0.143866
0.132694
0.122412
0.112938
0.104189
0.0960808
0.0885382
0.0814956
0.0748995
0.0687077
0.0628888
0.0574206
0.0522879
0.0474809
0.0429923
0.0388159
0.0349445
0.0313694
0.0280793
0.025061
0.0222994
0.0197783
0.0174806
0.015389
0.0134859
0.0117542
0.0101769
0.00873801
0.00742181
0.00621344
0.00509847
0.00406278
0.00309228
0.00217277
0.00128968
0.000427694
)
;
    }
    defaultFaces
    {
        type            empty;
    }
}


// ************************************************************************* //
