/*--------------------------------*- C++ -*----------------------------------*\
| =========                 |                                                 |
| \\      /  F ield         | OpenFOAM: The Open Source CFD Toolbox           |
|  \\    /   O peration     | Version:  5.x                                   |
|   \\  /    A nd           | Web:      www.OpenFOAM.org                      |
|    \\/     M anipulation  |                                                 |
\*---------------------------------------------------------------------------*/
FoamFile
{
    version     2.0;
    format      ascii;
    class       volScalarField;
    location    "7.2";
    object      gradTx;
}
// * * * * * * * * * * * * * * * * * * * * * * * * * * * * * * * * * * * * * //

dimensions      [0 -1 0 1 0 0 0];

internalField   nonuniform List<scalar> 
2048
(
0.0221294
0.0661416
0.10939
0.151298
0.191209
0.228393
0.262092
0.291579
0.31623
0.335597
0.34945
0.357796
0.360864
0.359073
0.352983
0.343244
0.330549
0.31559
0.29903
0.281474
0.263448
0.245397
0.227672
0.210543
0.1942
0.178769
0.164319
0.150874
0.138421
0.126918
0.116305
0.106511
0.0974577
0.0890719
0.0812858
0.0740416
0.0672916
0.0609986
0.0551341
0.0496771
0.0446121
0.039927
0.0356115
0.0316554
0.028047
0.0247729
0.0218171
0.0191614
0.0167855
0.0146681
0.0127865
0.0111179
0.00963936
0.00832824
0.00716276
0.00612218
0.00518711
0.00433974
0.00356389
0.00284507
0.00217034
0.00152819
0.000908309
0.000301358
0.0656246
0.196163
0.324496
0.44893
0.567518
0.678074
0.7783
0.865984
0.939232
0.996676
1.03762
1.0621
1.07083
1.06507
1.04653
1.01717
0.979062
0.934292
0.884838
0.832499
0.778846
0.725189
0.672568
0.62177
0.573353
0.527678
0.484941
0.445204
0.408422
0.374467
0.343154
0.314261
0.28756
0.262825
0.239855
0.218478
0.198554
0.179974
0.162654
0.146535
0.131571
0.117729
0.10498
0.0932942
0.0826382
0.0729723
0.0642491
0.0564146
0.0494088
0.0431676
0.0376242
0.0327103
0.0283579
0.0244999
0.0210716
0.0180114
0.0152618
0.0127701
0.0104885
0.00837415
0.00638895
0.00449907
0.00267433
0.00088734
0.107755
0.322167
0.533142
0.737969
0.933446
1.1159
1.28142
1.42619
1.54694
1.64132
1.70816
1.74753
1.7607
1.74986
1.71794
1.66823
1.60425
1.52948
1.44721
1.36042
1.27171
1.18321
1.09663
1.01321
0.933852
0.859107
0.789273
0.724428
0.664479
0.609194
0.558251
0.511271
0.467861
0.427645
0.390286
0.355501
0.323062
0.292794
0.264566
0.238284
0.21388
0.191304
0.170511
0.151459
0.134094
0.118351
0.104154
0.091412
0.0800272
0.069893
0.0608993
0.0529335
0.0458836
0.039639
0.0340933
0.0291452
0.0247004
0.0206725
0.0169834
0.0135633
0.0103504
0.00729003
0.00433411
0.00143833
0.148804
0.445038
0.736914
1.02084
1.29238
1.5463
1.77688
1.97851
2.14631
2.27683
2.36836
2.42111
2.43699
2.4193
2.37227
2.3007
2.20957
2.10383
1.98811
1.86659
1.74287
1.61989
1.49995
1.38473
1.27539
1.17265
1.07685
0.988057
0.906112
0.830654
0.761202
0.697198
0.638071
0.583282
0.532359
0.48491
0.440624
0.39927
0.360676
0.324723
0.291326
0.260427
0.231975
0.205914
0.182177
0.160677
0.141306
0.123941
0.108441
0.0946608
0.0824452
0.0716386
0.0620853
0.0536322
0.0461316
0.0394434
0.0334374
0.0279944
0.0230074
0.0183814
0.0140322
0.00988577
0.00587883
0.00195151
0.188929
0.56529
0.936804
1.29917
1.64675
1.97263
2.269
2.52807
2.74306
2.90919
3.02422
3.08854
3.10495
3.07802
3.01352
2.91787
2.79767
2.65937
2.50902
2.35201
2.19295
2.03555
1.88265
1.73629
1.59783
1.46808
1.34741
1.23583
1.13308
1.03863
0.951833
0.871911
0.798095
0.729671
0.666025
0.60666
0.551195
0.499347
0.450916
0.405766
0.363808
0.324983
0.289239
0.256519
0.226744
0.199806
0.175567
0.153867
0.134526
0.117355
0.102157
0.0887325
0.076882
0.0664103
0.0571289
0.0488591
0.0414352
0.0347067
0.0285389
0.0228126
0.0174232
0.0122792
0.00730449
0.00242553
0.228167
0.683088
1.13325
1.57387
1.99819
2.39738
2.76117
3.07908
3.34198
3.54347
3.68071
3.75451
3.76877
3.72965
3.64474
3.52224
3.37051
3.19759
3.011
2.81739
2.62239
2.43043
2.24484
2.06791
1.90113
1.74534
1.60088
1.46767
1.34531
1.2331
1.13015
1.03545
0.948006
0.866898
0.791372
0.720834
0.65484
0.593073
0.535314
0.481421
0.431311
0.384934
0.342251
0.303209
0.267723
0.235662
0.206861
0.181119
0.158216
0.137917
0.119982
0.104168
0.0902333
0.0779404
0.0670592
0.0573727
0.0486802
0.0408003
0.0335719
0.0268536
0.0205219
0.0144697
0.00861094
0.00286034
0.266439
0.798252
1.32614
1.84519
2.34756
2.82228
3.25608
3.63509
3.94718
4.18398
4.34206
4.42285
4.43178
4.37702
4.26823
4.11566
3.9295
3.71951
3.49474
3.26317
3.03143
2.80468
2.5866
2.37966
2.18536
2.0045
1.83732
1.68364
1.54289
1.41417
1.29631
1.18802
1.08801
0.995175
0.908603
0.827614
0.75172
0.680583
0.613978
0.55177
0.49389
0.440312
0.391021
0.345979
0.305098
0.268229
0.23517
0.205679
0.179492
0.156328
0.135904
0.117933
0.102132
0.0882186
0.0759223
0.0649871
0.0551774
0.0462817
0.0381137
0.0305114
0.0233343
0.0164621
0.00980117
0.00325694
0.303552
0.91028
1.51487
2.11271
2.69501
3.24839
3.75584
4.19915
4.56232
4.83456
5.01186
5.0967
5.0966
5.0222
4.88564
4.69937
4.47557
4.22576
3.96062
3.68953
3.42019
3.15837
2.90803
2.67166
2.45066
2.2457
2.05689
1.88391
1.72602
1.58207
1.45058
1.3299
1.21843
1.11482
1.01801
0.927264
0.842066
0.762077
0.687079
0.616953
0.551654
0.491196
0.435605
0.384868
0.3389
0.297529
0.260515
0.227568
0.198375
0.172609
0.149943
0.130048
0.112596
0.0972641
0.0837385
0.071723
0.0609472
0.0511703
0.0421819
0.0338012
0.0258728
0.0182653
0.0108806
0.00361712
0.33921
1.01836
1.69833
2.3754
3.04006
3.67618
4.2621
4.774
5.19078
5.49868
5.69327
5.77867
5.76521
5.66667
5.49803
5.27416
5.00925
4.71666
4.40876
4.09647
3.78861
3.49151
3.20923
2.9441
2.69728
2.46921
2.25986
2.06875
1.89498
1.73713
1.59333
1.46151
1.33967
1.22622
1.11996
1.02011
0.926162
0.837803
0.754833
0.677152
0.604754
0.537706
0.476094
0.419949
0.369191
0.323622
0.282953
0.24684
0.214916
0.186807
0.162142
0.14055
0.121664
0.105114
0.0905435
0.0776146
0.0660216
0.0554951
0.0458021
0.0367445
0.0281543
0.0198914
0.0118563
0.00394323
0.373019
1.12137
1.87493
2.63163
3.38157
4.10557
4.77617
5.36216
5.8358
6.17959
6.38903
6.47078
6.43898
6.3113
6.10598
5.84041
5.5308
5.19228
4.83907
4.48383
4.13658
3.80409
3.49032
3.19722
2.92553
2.67539
2.44658
2.23851
2.05012
1.87972
1.725
1.58332
1.45223
1.32984
1.21486
1.1065
1.00432
0.908043
0.817488
0.732586
0.653372
0.579985
0.512603
0.451319
0.396061
0.346594
0.302568
0.263576
0.229191
0.198991
0.172563
0.149499
0.129389
0.111819
0.0963856
0.0827068
0.0704415
0.0592923
0.0490054
0.0393673
0.0301989
0.0213545
0.0127366
0.00423795
0.404495
1.21795
2.04266
2.87915
3.71773
4.53592
5.29905
5.96616
6.50062
6.88041
7.10159
7.17463
7.11875
6.95645
6.70962
6.39819
6.04023
5.65255
5.25132
4.85129
4.46386
4.09609
3.75149
3.43135
3.13583
2.86466
2.61746
2.39356
2.19182
2.01028
1.84609
1.69589
1.55666
1.4262
1.30316
1.18684
1.07689
0.973096
0.875315
0.783495
0.697711
0.618198
0.545263
0.479091
0.419616
0.36655
0.319465
0.277877
0.241294
0.209247
0.181285
0.156963
0.135835
0.11744
0.101322
0.0870519
0.0742537
0.0626032
0.0518273
0.0416987
0.0320294
0.0226703
0.0135303
0.00450414
0.43309
1.30651
2.19907
3.11513
4.0461
4.96608
5.83154
6.58861
7.18868
7.60422
7.83307
7.8913
7.80479
7.60197
7.30871
6.94731
6.53743
6.09726
5.64513
5.19843
4.77019
4.36749
3.99295
3.64691
3.32869
3.03756
2.77299
2.53435
2.32049
2.12927
1.95716
1.79984
1.65356
1.51583
1.38534
1.26152
1.14421
1.03327
0.928602
0.83014
0.737994
0.652517
0.57421
0.503384
0.439975
0.383611
0.333765
0.289859
0.251333
0.217673
0.188393
0.16302
0.141073
0.122044
0.105415
0.0907076
0.0775095
0.0654721
0.0543053
0.0437698
0.0336694
0.023855
0.0142466
0.00474457
0.458202
1.38527
2.34137
3.33619
4.3635
5.39428
6.37425
7.2324
7.90371
8.35412
8.58534
8.6214
8.49679
8.24724
7.90267
7.48741
7.02225
6.52624
6.02004
5.52467
5.05523
4.61831
4.21505
3.84446
3.50476
3.19468
2.91371
2.66132
2.43653
2.23714
2.0588
1.89584
1.74357
1.59932
1.46186
1.33092
1.20661
1.08889
0.97764
0.872796
0.774455
0.683121
0.599579
0.524324
0.457267
0.397911
0.345603
0.299654
0.259429
0.224375
0.193981
0.167752
0.145179
0.125702
0.108733
0.093735
0.0802622
0.0679449
0.0564783
0.0456127
0.0351437
0.0249247
0.0148937
0.0049618
0.479213
1.45236
2.4665
3.53839
4.66604
5.81813
6.92768
7.90086
8.64994
9.13321
9.3599
9.365
9.19387
8.89115
8.49066
8.01801
7.49459
6.93933
6.3755
5.82932
5.31861
4.84865
4.4182
4.02462
3.66474
3.3367
3.0402
2.77494
2.54033
2.33435
2.15164
1.98462
1.82739
1.67723
1.5332
1.39542
1.26442
1.14025
1.02273
0.911751
0.807344
0.710187
0.621497
0.542031
0.471626
0.409594
0.355126
0.307403
0.265708
0.229465
0.198146
0.171242
0.148229
0.12849
0.111347
0.0961967
0.0825659
0.0700674
0.0583848
0.0472596
0.036477
0.025895
0.0154792
0.00515785
0.495515
1.50591
2.57123
3.71734
4.94902
6.23445
7.49218
8.59805
9.43227
9.94458
10.1579
10.1217
9.8945
9.53219
9.07159
8.53854
7.95452
7.33658
6.71086
6.11147
5.55993
5.05869
4.60294
4.1882
3.80951
3.46435
3.15308
2.87567
2.63218
2.4213
2.23638
2.06699
1.90571
1.75016
1.59981
1.45536
1.31794
1.18764
1.06415
0.947307
0.836923
0.733881
0.640074
0.556623
0.483194
0.418811
0.36249
0.313254
0.270303
0.23306
0.200986
0.173572
0.150298
0.130483
0.113329
0.0981559
0.084474
0.0718846
0.0600623
0.0487428
0.0376941
0.0267804
0.0160091
0.00533408
0.506546
1.54413
2.65227
3.86823
5.20691
6.63911
8.06789
9.329
10.2565
10.7912
10.98
10.8904
10.5964
10.1684
9.64425
9.04836
8.40235
7.7183
7.02532
6.36997
5.77881
5.24879
4.76991
4.3361
3.94001
3.57841
3.25302
2.96398
2.7123
2.49832
2.31374
2.14384
1.97927
1.81867
1.66212
1.51101
1.36744
1.23136
1.1022
0.979784
0.863475
0.754359
0.655392
0.568208
0.492118
0.425719
0.367856
0.317363
0.273348
0.235275
0.202599
0.174819
0.151457
0.131757
0.114754
0.0996748
0.0860384
0.0734393
0.0615461
0.050094
0.0388201
0.0275939
0.016487
0.00549082
0.511831
1.56539
2.70646
3.98599
5.43329
7.02683
8.65467
10.1001
11.1297
11.6756
11.8263
11.6697
11.2967
10.7977
10.2074
9.54672
8.83882
8.08525
7.3179
6.60329
5.97489
5.41953
4.91983
4.46937
4.05735
3.67966
3.34073
3.04035
2.78077
2.56561
2.38455
2.21617
2.04876
1.8833
1.72054
1.56259
1.41317
1.27168
1.13713
1.00952
0.887313
0.771748
0.667493
0.57689
0.498558
0.430479
0.371394
0.319892
0.274973
0.236225
0.203081
0.175056
0.151772
0.132391
0.115698
0.100813
0.087308
0.0747716
0.0628682
0.0513445
0.0398803
0.0283466
0.0169138
0.00562711
0.511013
1.56841
2.7309
4.06542
5.62085
7.39082
9.25185
10.9198
12.0602
12.5994
12.6964
12.4577
11.9912
11.4174
10.7598
10.0326
9.26524
8.43889
7.58725
6.80937
6.14796
5.57179
5.05346
4.58921
4.16278
3.76883
3.41698
3.10532
2.83747
2.62322
2.44976
2.28517
2.11482
1.94459
1.77544
1.61025
1.45532
1.30886
1.16916
1.0369
0.908798
0.786144
0.676369
0.582767
0.502689
0.433255
0.373279
0.321009
0.275308
0.236024
0.20253
0.174345
0.151299
0.132464
0.116242
0.101626
0.0883282
0.0759187
0.064056
0.0525255
0.0409018
0.029047
0.0172864
0.00574036
0.503885
1.55227
2.72316
4.10144
5.7614
7.72243
9.85783
11.799
13.0588
13.5628
13.5891
13.2525
12.6747
12.0253
11.3006
10.5046
9.68366
8.78163
7.83149
6.98537
6.29804
5.70694
5.17148
4.69698
4.25773
3.84648
3.48262
3.15953
2.882
2.67093
2.51052
2.35218
2.17797
2.00301
1.82724
1.65396
1.49411
1.34321
1.19844
1.06233
0.928361
0.797584
0.681933
0.585944
0.504717
0.434199
0.373689
0.320889
0.274468
0.234786
0.201042
0.172734
0.150084
0.13206
0.116469
0.102164
0.089141
0.076915
0.0651304
0.0536687
0.0419143
0.0297001
0.0175972
0.00582607
0.490414
1.51656
2.68147
4.08932
5.84602
8.01072
10.4694
12.7524
14.1388
14.5631
14.5027
14.0524
13.3402
12.619
11.8295
10.96
10.0972
9.11735
8.04785
7.12742
6.42566
5.82697
5.27425
4.79421
4.34389
3.9129
3.53867
3.20383
2.9136
2.70818
2.56828
2.4189
2.2385
2.059
1.87637
1.69355
1.52973
1.37504
1.22502
1.0863
0.946543
0.806026
0.684005
0.586542
0.504887
0.433447
0.372807
0.31972
0.272549
0.232619
0.198719
0.170256
0.148157
0.131269
0.116472
0.102463
0.0897842
0.0777927
0.0661031
0.0548074
0.0429526
0.0303065
0.0178325
0.0058775
0.470751
1.4614
2.60485
4.025
5.86522
8.24196
11.0808
13.7996
15.3169
15.593
15.4354
14.857
13.9779
13.1971
12.3475
11.3945
10.5104
9.45194
8.2322
7.2302
6.5321
5.93482
5.36154
4.8827
4.42337
3.96784
3.5863
3.23946
2.93099
2.73391
2.62496
2.48739
2.29624
2.11303
1.92338
1.72854
1.5624
1.40477
1.24873
1.10937
0.964049
0.811303
0.682274
0.584725
0.503506
0.431096
0.370821
0.317708
0.26962
0.229634
0.195676
0.166924
0.145524
0.130194
0.116354
0.102546
0.0902931
0.0785844
0.0669724
0.0559779
0.0440592
0.0308606
0.0179717
0.00588564
0.44523
1.38751
2.49331
3.90543
5.80939
8.3992
11.6821
14.9673
16.6151
16.6378
16.3855
15.6679
14.5741
13.7594
12.8571
11.8005
10.9295
9.79421
8.37839
7.28647
6.61995
6.03463
5.43195
4.96463
4.49884
4.01014
3.62706
3.26823
2.93223
2.74632
2.68312
2.5603
2.35036
2.16559
1.96905
1.75804
1.59248
1.43299
1.2691
1.13227
0.981819
0.813074
0.676269
0.580731
0.500968
0.427171
0.367932
0.315089
0.265699
0.225946
0.192045
0.162719
0.142165
0.128959
0.116234
0.102407
0.0907024
0.0793261
0.0677169
0.0572224
0.0452883
0.0313475
0.0179866
0.00583928
0.414357
1.29614
2.34791
3.72891
5.66927
8.46193
12.2568
16.2908
18.0621
17.6717
17.3528
16.491
15.1089
14.3082
13.3639
12.1653
11.3638
10.157
8.47723
7.28649
6.6937
6.13227
5.48217
5.04278
4.57392
4.03724
3.66298
3.29286
2.91444
2.74268
2.74627
2.64105
2.39894
2.21734
2.01456
1.78051
1.62048
1.46054
1.28515
1.15589
1.00113
0.81073
0.665309
0.574919
0.497789
0.421576
0.364361
0.312148
0.260731
0.221679
0.187993
0.157589
0.138023
0.127716
0.116257
0.102004
0.0910504
0.0800629
0.0682868
0.058592
0.0467116
0.0317394
0.0178403
0.00572547
0.378784
1.1891
2.17078
3.49545
5.43672
8.40607
12.7786
17.8182
19.6957
18.6521
18.3406
17.3383
15.5532
14.8496
13.8779
12.4682
11.826
10.5586
8.51521
7.21738
6.76059
6.23589
5.50584
5.12092
4.65355
4.04438
3.69684
3.31737
2.87353
2.71892
2.81925
2.73409
2.4384
2.26928
2.06171
1.79343
1.64724
1.48868
1.29518
1.18143
1.02371
0.803291
0.648468
0.567828
0.494643
0.414031
0.360368
0.309245
0.25455
0.216978
0.183739
0.151428
0.13299
0.126658
0.116601
0.101236
0.0913853
0.0808567
0.0685901
0.0601522
0.0484242
0.0319897
0.0174877
0.00553043
0.339276
1.0686
1.96512
3.20703
5.10563
8.20429
13.2072
19.6131
21.5666
19.5122
19.3582
18.2312
15.8636
15.3957
14.4157
12.6767
12.334
11.0246
8.4727
7.06236
6.83174
6.3567
5.49198
5.20436
4.7447
4.02355
3.7326
3.34761
2.80383
2.66925
2.90864
2.84533
2.46276
2.32301
2.11321
1.79289
1.67415
1.51927
1.29633
1.21051
1.05194
0.789242
0.62452
0.560261
0.492421
0.403967
0.356281
0.306846
0.246828
0.212024
0.179572
0.14407
0.126897
0.12604
0.117489
0.0999164
0.0917762
0.0817979
0.0684746
0.0619902
0.0505537
0.0320243
0.0168761
0.00524086
0.296669
0.937195
1.73504
2.86775
4.67297
7.82723
13.4813
21.7599
23.7433
20.151
20.4253
19.2051
15.9768
15.9674
15.0035
12.741
12.9134
11.5904
8.32168
6.80006
6.92342
6.5099
5.42293
5.3008
4.85714
3.96204
3.77589
3.39189
2.69762
2.5856
3.0234
2.98257
2.46258
2.38117
2.17314
1.77289
1.70337
1.55512
1.28419
1.24534
1.08901
0.766337
0.591907
0.553373
0.49229
0.390401
0.352542
0.305575
0.237007
0.20706
0.175881
0.13526
0.119491
0.126191
0.119209
0.0977413
0.0923271
0.08302
0.0677025
0.0642254
0.0532701
0.03173
0.0159485
0.00484583
0.251829
0.797611
1.4854
2.48387
4.13995
7.24566
13.5114
24.3695
26.3178
20.42
21.578
20.3139
15.8005
16.5984
15.6803
12.5873
13.5995
12.3035
8.02279
6.4038
7.05855
6.71594
5.27159
5.42144
5.00458
3.84054
3.83478
3.46167
2.54458
2.457
3.17546
3.15617
2.42363
2.44799
2.24746
1.72452
1.73827
1.60025
1.25205
1.28905
1.13916
0.731328
0.548704
0.548779
0.495774
0.371768
0.349771
0.306269
0.224201
0.202421
0.173187
0.124638
0.110422
0.127546
0.122133
0.0942409
0.0931983
0.0847189
0.0659171
0.0670233
0.0567978
0.0309395
0.0146474
0.0043389
0.20561
0.65264
1.22154
2.06362
3.51304
6.43404
13.1688
27.5853
29.4139
20.1068
22.876
21.637
15.2024
17.3406
16.5034
12.1084
14.4423
13.2268
7.52177
5.84104
7.26841
7.00205
4.99798
5.58262
5.20598
3.63071
3.92079
3.57238
2.33116
2.26885
3.38052
3.37985
2.32519
2.53006
2.34459
1.63487
1.78392
1.66039
1.19018
1.34594
1.20797
0.679644
0.492619
0.548679
0.504847
0.345702
0.34886
0.310052
0.20708
0.198587
0.172171
0.111704
0.0992147
0.130663
0.126747
0.088722
0.0946337
0.0871773
0.0626005
0.070615
0.0614293
0.0294111
0.0129226
0.00372035
0.158821
0.504994
0.949005
1.61685
2.80473
5.37597
12.2733
31.5911
33.198
18.9145
24.4136
23.2863
13.9967
18.2704
17.5535
11.153
15.5106
14.4416
6.74514
5.0731
7.59431
7.40411
4.54496
5.80782
5.48719
3.29215
4.05024
3.74425
2.03992
2.00214
3.65884
3.67167
2.13793
2.63739
2.47623
1.48566
1.84773
1.74354
1.08473
1.42207
1.30264
0.604986
0.421014
0.555968
0.522048
0.308777
0.351092
0.318412
0.183723
0.196246
0.173717
0.0957891
0.0852485
0.136258
0.13368
0.0801954
0.0969962
0.0907935
0.0570194
0.0753216
0.0675407
0.0268032
0.0107414
0.00299908
0.112193
0.357187
0.673248
1.15448
2.03388
4.0717
10.5773
36.6192
37.8909
16.4368
26.332
25.4153
11.9268
19.4969
18.9419
9.51207
16.8991
16.0513
5.59519
4.05525
8.08927
7.96904
3.83307
6.13023
5.88282
2.76874
4.24597
4.00315
1.64875
1.63254
4.03613
4.05529
1.82141
2.7847
2.6582
1.25152
1.94026
1.86055
0.916556
1.52574
1.43226
0.498867
0.330978
0.574356
0.550623
0.256188
0.358296
0.333304
0.151435
0.196377
0.178941
0.0760144
0.0677312
0.145232
0.14375
0.0672885
0.100812
0.0961151
0.0481613
0.0815865
0.0756073
0.0226443
0.00810322
0.0021936
0.066363
0.211453
0.399331
0.687719
1.22511
2.54826
7.74767
42.9586
43.7835
12.1295
28.8349
28.2284
8.64552
21.172
20.8183
6.90321
18.736
18.1846
3.94432
2.73732
8.81941
8.75752
2.7546
6.59585
6.43838
1.98438
4.53948
4.38126
1.13013
1.1295
4.54433
4.56142
1.32108
2.99293
2.91135
0.898086
2.07625
2.02588
0.659715
1.66832
1.60813
0.350065
0.219453
0.608454
0.594685
0.181384
0.373041
0.357243
0.106537
0.200359
0.189222
0.0512538
0.0456757
0.158696
0.158015
0.0481439
0.106825
0.103877
0.0346583
0.0900136
0.08622
0.0162957
0.00505796
0.00133149
0.0218586
0.0696772
0.131708
0.227295
0.407298
0.872302
3.34512
50.9648
51.2545
5.27655
32.207
31.9912
3.69248
23.5021
23.3793
2.95284
21.1927
20.9985
1.62883
1.06494
9.86496
9.84738
1.16677
7.26717
7.21254
0.838076
4.97355
4.9177
0.450435
0.455371
5.2224
5.22957
0.564933
3.29119
3.26264
0.379692
2.27575
2.25836
0.279858
1.86509
1.84404
0.144035
0.0834301
0.66383
0.659407
0.0756521
0.398871
0.393414
0.0441249
0.2101
0.206223
0.0200923
0.0178786
0.177998
0.177826
0.0203032
0.116058
0.115044
0.0146998
0.101415
0.100101
0.0069106
0.00172983
0.000446677
)
;

boundaryField
{
    left
    {
        type            calculated;
        value           uniform 0;
    }
    right
    {
        type            calculated;
        value           uniform 0;
    }
    interface
    {
        type            calculated;
        value           nonuniform List<scalar> 
64
(
0.0218586
0.0696772
0.131708
0.227295
0.407298
0.872302
3.34512
50.9648
51.2545
5.27655
32.207
31.9912
3.69248
23.5021
23.3793
2.95284
21.1927
20.9985
1.62883
1.06494
9.86496
9.84738
1.16677
7.26717
7.21254
0.838076
4.97355
4.9177
0.450435
0.455371
5.2224
5.22957
0.564933
3.29119
3.26264
0.379692
2.27575
2.25836
0.279858
1.86509
1.84404
0.144035
0.0834301
0.66383
0.659407
0.0756521
0.398871
0.393414
0.0441249
0.2101
0.206223
0.0200923
0.0178786
0.177998
0.177826
0.0203032
0.116058
0.115044
0.0146998
0.101415
0.100101
0.0069106
0.00172983
0.000446677
)
;
    }
    bottom
    {
        type            calculated;
        value           nonuniform List<scalar> 
64
(
0.0221294
0.0661416
0.10939
0.151298
0.191209
0.228393
0.262092
0.291579
0.31623
0.335597
0.34945
0.357796
0.360864
0.359073
0.352983
0.343244
0.330549
0.31559
0.29903
0.281474
0.263448
0.245397
0.227672
0.210543
0.1942
0.178769
0.164319
0.150874
0.138421
0.126918
0.116305
0.106511
0.0974577
0.0890719
0.0812858
0.0740416
0.0672916
0.0609986
0.0551341
0.0496771
0.0446121
0.039927
0.0356115
0.0316554
0.028047
0.0247729
0.0218171
0.0191614
0.0167855
0.0146681
0.0127865
0.0111179
0.00963936
0.00832824
0.00716276
0.00612218
0.00518711
0.00433974
0.00356389
0.00284507
0.00217034
0.00152819
0.000908309
0.000301358
)
;
    }
    defaultFaces
    {
        type            empty;
    }
}


// ************************************************************************* //
