/*--------------------------------*- C++ -*----------------------------------*\
| =========                 |                                                 |
| \\      /  F ield         | OpenFOAM: The Open Source CFD Toolbox           |
|  \\    /   O peration     | Version:  5.x                                   |
|   \\  /    A nd           | Web:      www.OpenFOAM.org                      |
|    \\/     M anipulation  |                                                 |
\*---------------------------------------------------------------------------*/
FoamFile
{
    version     2.0;
    format      ascii;
    class       volScalarField;
    location    "7.2";
    object      T;
}
// * * * * * * * * * * * * * * * * * * * * * * * * * * * * * * * * * * * * * //

dimensions      [0 0 0 1 0 0 0];

internalField   nonuniform List<scalar> 
2048
(
9.85514
9.85583
9.85721
9.85925
9.86194
9.86523
9.86907
9.87342
9.87819
9.8833
9.88867
9.89422
9.89986
9.9055
9.91108
9.91653
9.9218
9.92686
9.93166
9.9362
9.94046
9.94444
9.94813
9.95155
9.95471
9.95762
9.9603
9.96275
9.96501
9.96708
9.96898
9.97071
9.9723
9.97376
9.97509
9.9763
9.9774
9.9784
9.97931
9.98013
9.98086
9.98152
9.98211
9.98263
9.9831
9.98351
9.98387
9.98419
9.98447
9.98472
9.98493
9.98512
9.98528
9.98542
9.98554
9.98564
9.98573
9.9858
9.98586
9.98591
9.98595
9.98598
9.986
9.98601
9.57119
9.57324
9.57732
9.58338
9.59135
9.60112
9.61254
9.62544
9.6396
9.65479
9.67075
9.68722
9.70394
9.72068
9.73722
9.75338
9.76901
9.78398
9.79821
9.81163
9.82422
9.83597
9.84688
9.85699
9.86631
9.8749
9.8828
9.89006
9.89672
9.90282
9.90842
9.91355
9.91824
9.92253
9.92645
9.93003
9.93328
9.93623
9.9389
9.94131
9.94348
9.94543
9.94716
9.94871
9.95008
9.95129
9.95236
9.9533
9.95412
9.95484
9.95547
9.95602
9.95649
9.9569
9.95726
9.95756
9.95782
9.95804
9.95822
9.95837
9.95848
9.95857
9.95862
9.95865
9.29811
9.30147
9.30817
9.31813
9.33124
9.3473
9.36611
9.38735
9.41068
9.43569
9.46197
9.48907
9.51658
9.54409
9.57126
9.59778
9.62339
9.64791
9.67119
9.69314
9.7137
9.73288
9.75068
9.76715
9.78234
9.79633
9.80919
9.82099
9.83183
9.84176
9.85086
9.8592
9.86684
9.87383
9.8802
9.88602
9.89131
9.89612
9.90046
9.90439
9.90791
9.91107
9.91389
9.9164
9.91862
9.92059
9.92232
9.92384
9.92518
9.92634
9.92736
9.92825
9.92902
9.92968
9.93025
9.93075
9.93116
9.93152
9.93181
9.93205
9.93223
9.93237
9.93246
9.93251
9.03464
9.03929
9.04854
9.06231
9.08044
9.1027
9.12877
9.15823
9.19059
9.2253
9.26175
9.29931
9.33741
9.37547
9.41301
9.4496
9.48491
9.51865
9.55065
9.58078
9.60898
9.63524
9.6596
9.68212
9.70288
9.72197
9.73952
9.75563
9.7704
9.78394
9.79636
9.80773
9.81814
9.82767
9.83637
9.8443
9.85152
9.85807
9.864
9.86935
9.87415
9.87845
9.88229
9.8857
9.88872
9.89139
9.89374
9.89581
9.89762
9.8992
9.90057
9.90177
9.90281
9.90371
9.90449
9.90515
9.90572
9.9062
9.9066
9.90692
9.90717
9.90736
9.90748
9.90754
8.77975
8.78565
8.79741
8.81493
8.83801
8.86639
8.89966
8.93729
8.97866
9.02301
9.06957
9.11752
9.16609
9.21455
9.26228
9.30872
9.35346
9.39615
9.43656
9.47456
9.51006
9.54309
9.57368
9.60192
9.62793
9.65185
9.67381
9.69396
9.71243
9.72937
9.74489
9.75911
9.77214
9.78405
9.79494
9.80487
9.8139
9.82209
9.8295
9.83618
9.84218
9.84755
9.85234
9.85659
9.86035
9.86368
9.8666
9.86916
9.87141
9.87337
9.87507
9.87656
9.87785
9.87896
9.87992
9.88075
9.88145
9.88204
9.88253
9.88293
9.88325
9.88348
9.88363
9.88371
8.53259
8.53972
8.55394
8.57514
8.60312
8.63758
8.67804
8.72387
8.77426
8.8283
8.88499
8.94332
9.00232
9.0611
9.11887
9.175
9.22894
9.28033
9.32887
9.37442
9.41691
9.45637
9.49286
9.52652
9.55749
9.58593
9.61203
9.63596
9.65789
9.678
9.69643
9.71332
9.72879
9.74294
9.75588
9.76767
9.7784
9.78814
9.79694
9.80486
9.81198
9.81834
9.82401
9.82904
9.83348
9.8374
9.84085
9.84387
9.84651
9.84881
9.85082
9.85256
9.85407
9.85538
9.85651
9.85748
9.8583
9.859
9.85958
9.86005
9.86042
9.86069
9.86087
9.86096
8.29247
8.3008
8.31742
8.34224
8.37508
8.4156
8.46328
8.51736
8.57687
8.6407
8.70762
8.77639
8.84584
8.91489
8.98262
9.04827
9.11123
9.17107
9.22747
9.28028
9.32944
9.37501
9.41709
9.45584
9.49145
9.52413
9.55409
9.58155
9.60671
9.62976
9.6509
9.67027
9.68803
9.70427
9.71913
9.73267
9.74499
9.75616
9.76626
9.77535
9.7835
9.79078
9.79726
9.803
9.80807
9.81253
9.81645
9.81988
9.82288
9.82549
9.82777
9.82974
9.83145
9.83293
9.83421
9.8353
9.83624
9.83703
9.83768
9.83822
9.83864
9.83895
9.83915
9.83925
8.05883
8.06832
8.08728
8.11566
8.1533
8.19988
8.25481
8.31725
8.38603
8.45982
8.53712
8.61644
8.69639
8.77571
8.85333
8.92838
9.00019
9.06825
9.13224
9.19201
9.24754
9.2989
9.34624
9.38977
9.42973
9.46635
9.49991
9.53063
9.55878
9.58457
9.60822
9.6299
9.64978
9.66798
9.68462
9.69979
9.71359
9.7261
9.73741
9.74758
9.75669
9.76482
9.77204
9.77843
9.78406
9.78902
9.79336
9.79716
9.80047
9.80336
9.80587
9.80804
9.80993
9.81156
9.81297
9.81418
9.81521
9.81608
9.81681
9.8174
9.81787
9.81821
9.81844
9.81855
7.83121
7.84181
7.86303
7.89488
7.93727
7.98989
8.05215
8.12308
8.20133
8.28529
8.37317
8.4632
8.55375
8.64337
8.73083
8.81518
8.89565
8.97172
9.04305
9.10949
9.17106
9.22789
9.28017
9.32817
9.37217
9.41246
9.44934
9.48309
9.51399
9.5423
9.56827
9.59209
9.61394
9.63396
9.65226
9.66896
9.68414
9.6979
9.71032
9.72149
9.73148
9.74039
9.74829
9.75527
9.76141
9.7668
9.77152
9.77565
9.77924
9.78236
9.78508
9.78743
9.78947
9.79123
9.79275
9.79406
9.79518
9.79612
9.79691
9.79755
9.79806
9.79843
9.79868
9.7988
7.60926
7.62092
7.6443
7.67951
7.72654
7.78518
7.85484
7.93444
8.02241
8.11681
8.21552
8.31646
8.41773
8.51768
8.61496
8.70849
8.79747
8.88133
8.95973
9.03255
9.09985
9.16182
9.21873
9.27089
9.31864
9.36231
9.40225
9.43877
9.4722
9.50284
9.53094
9.55674
9.58042
9.60212
9.62198
9.64009
9.65656
9.67147
9.68493
9.69702
9.70783
9.71744
9.72595
9.73346
9.74005
9.74583
9.75088
9.75529
9.75912
9.76245
9.76534
9.76784
9.77001
9.77189
9.77351
9.7749
9.77609
9.7771
9.77794
9.77863
9.77917
9.77958
9.77984
9.77997
7.3927
7.40534
7.43076
7.46918
7.52074
7.58536
7.66248
7.75095
7.84893
7.9541
8.06394
8.17602
8.28815
8.39848
8.50554
8.60816
8.70548
8.79691
8.88212
8.96102
9.03372
9.10051
9.16173
9.21775
9.26896
9.31574
9.35848
9.39754
9.43328
9.46603
9.4961
9.52372
9.54909
9.57237
9.59366
9.61309
9.63075
9.64674
9.66116
9.6741
9.68565
9.6959
9.70496
9.71294
9.71994
9.72605
9.73139
9.73604
9.74007
9.74358
9.74661
9.74924
9.75152
9.75349
9.75519
9.75665
9.75791
9.75897
9.75986
9.76059
9.76117
9.76159
9.76188
9.76202
7.18134
7.19488
7.22217
7.2636
7.31952
7.39004
7.47471
7.57227
7.6806
7.79692
7.91823
8.0417
8.16484
8.2856
8.4024
8.514
8.6195
8.71829
8.81004
8.89471
8.97249
9.04377
9.10898
9.16855
9.22294
9.27258
9.31787
9.35923
9.39707
9.43175
9.46361
9.49291
9.51985
9.54458
9.56722
9.58787
9.60664
9.62363
9.63893
9.65265
9.66487
9.67571
9.68527
9.69365
9.701
9.7074
9.71298
9.71783
9.72204
9.72569
9.72884
9.73158
9.73394
9.73598
9.73775
9.73928
9.74059
9.7417
9.74263
9.7434
9.744
9.74445
9.74475
9.7449
6.97504
6.98936
7.01833
7.06253
7.12259
7.19889
7.29116
7.39808
7.51717
7.64507
7.77824
7.91337
8.04766
8.17889
8.30538
8.42585
8.53936
8.64529
8.74331
8.83342
8.91595
8.9914
9.06028
9.12312
9.18042
9.23264
9.28025
9.32369
9.36342
9.39984
9.43333
9.46417
9.49257
9.51866
9.54255
9.56434
9.58414
9.60205
9.61817
9.6326
9.64544
9.6568
9.66679
9.67554
9.68318
9.68983
9.69561
9.70063
9.70498
9.70874
9.71199
9.7148
9.71723
9.71933
9.72116
9.72273
9.72409
9.72524
9.72621
9.72701
9.72764
9.7281
9.72841
9.72857
6.77371
6.78869
6.8191
6.86577
6.92967
7.01158
7.11149
7.22807
7.35839
7.49838
7.64381
7.79088
7.93646
8.07819
8.21431
8.34352
8.46487
8.57773
8.68173
8.77696
8.86389
8.94317
9.01541
9.08124
9.14118
9.19576
9.24545
9.29076
9.33217
9.37015
9.40512
9.43739
9.46714
9.49449
9.51955
9.54241
9.56316
9.58192
9.59879
9.61388
9.62729
9.63911
9.64948
9.65853
9.66642
9.67327
9.67922
9.68437
9.68882
9.69267
9.69599
9.69886
9.70135
9.7035
9.70536
9.70698
9.70837
9.70956
9.71056
9.71138
9.71203
9.71252
9.71284
9.713
6.57732
6.5928
6.62438
6.67315
6.74054
6.82781
6.93537
7.06194
7.20406
7.3567
7.51483
7.67413
7.83113
7.98334
8.12901
8.26682
8.39584
8.5154
8.62511
8.72512
8.81609
8.89886
8.97418
9.04271
9.10506
9.16175
9.21332
9.26029
9.30318
9.34254
9.37885
9.41243
9.44344
9.47198
9.49813
9.52198
9.54361
9.56316
9.58073
9.59642
9.61033
9.62257
9.63326
9.64257
9.65066
9.65767
9.66375
9.669
9.67354
9.67745
9.68082
9.68373
9.68624
9.68843
9.69032
9.69197
9.69339
9.69461
9.69563
9.69648
9.69716
9.69766
9.69799
9.69816
6.38585
6.40168
6.4341
6.48456
6.55498
6.64728
6.76246
6.8994
7.05399
7.21991
7.39121
7.56304
7.73154
7.89418
8.0493
8.19556
8.33206
8.45813
8.57326
8.67767
8.77232
8.85826
8.93635
9.00732
9.07185
9.13045
9.18367
9.2321
9.2763
9.31686
9.35437
9.38917
9.42137
9.45102
9.4782
9.50296
9.52542
9.54569
9.5639
9.58014
9.59452
9.60712
9.61809
9.6276
9.63585
9.64298
9.64915
9.65448
9.65907
9.66302
9.66642
9.66935
9.67188
9.67408
9.676
9.67767
9.67912
9.68036
9.68141
9.68228
9.68298
9.68349
9.68384
9.68401
6.19933
6.21533
6.24825
6.2999
6.37281
6.46969
6.5924
6.74015
6.90803
7.08795
7.27289
7.45752
7.63757
7.81054
7.975
8.12953
8.27333
8.40574
8.52599
8.63442
8.73235
8.82114
8.90171
8.97488
9.04138
9.10168
9.15636
9.20607
9.25138
9.29297
9.33155
9.36749
9.40081
9.43151
9.45966
9.48528
9.50849
9.52944
9.54823
9.56498
9.57978
9.5927
9.6039
9.61356
9.62192
9.62914
9.63538
9.64075
9.64537
9.64934
9.65275
9.65569
9.65822
9.66043
9.66236
9.66405
9.66551
9.66678
9.66785
9.66874
9.66945
9.66999
9.67034
9.67052
6.01781
6.03378
6.06682
6.11912
6.19386
6.29477
6.42483
6.58389
6.76607
6.96077
7.1598
7.35753
7.54911
7.73226
7.9059
8.0685
8.21942
8.35804
8.48314
8.59514
8.69593
8.78726
8.87005
8.94518
9.01346
9.07527
9.13124
9.18205
9.22828
9.27072
9.31025
9.34728
9.38166
9.41337
9.44243
9.46885
9.49275
9.51433
9.53365
9.55086
9.56606
9.57926
9.59062
9.6004
9.60884
9.61611
9.62238
9.62777
9.63241
9.63638
9.63978
9.64271
9.64523
9.64743
9.64937
9.65107
9.65255
9.65383
9.65492
9.65583
9.65656
9.65711
9.65747
9.65765
5.84133
5.85708
5.88984
5.94218
6.01801
6.12222
6.25934
6.43028
6.62806
6.83837
7.05189
7.26303
7.46604
7.65911
7.84183
8.01226
8.17009
8.31487
8.44452
8.5596
8.66281
8.75642
8.84116
8.91803
8.98794
9.05108
9.10814
9.15991
9.20687
9.24998
9.29034
9.32843
9.36385
9.39649
9.42644
9.45359
9.47813
9.50028
9.5201
9.53773
9.5533
9.56675
9.57822
9.58806
9.59653
9.60383
9.6101
9.61551
9.62013
9.62408
9.62747
9.63037
9.63287
9.63506
9.63699
9.6387
9.64019
9.64148
9.64259
9.64352
9.64427
9.64483
9.64519
9.64538
5.66997
5.6853
5.71737
5.7691
5.84516
5.95178
6.09549
6.27895
6.494
6.72079
6.9491
7.174
7.38824
7.59088
7.78259
7.96055
8.12509
8.27609
8.41
8.52759
8.63273
8.72839
8.81483
8.89321
8.96465
9.02896
9.08693
9.13954
9.18704
9.23059
9.27168
9.31085
9.34727
9.3808
9.41161
9.43944
9.46453
9.48724
9.5075
9.52552
9.54145
9.5551
9.56664
9.57648
9.58497
9.59225
9.59851
9.60391
9.6085
9.61242
9.61577
9.61863
9.62109
9.62326
9.6252
9.6269
9.6284
9.62971
9.63083
9.63177
9.63254
9.63312
9.63349
9.63367
5.50379
5.5185
5.54946
5.5999
5.67524
5.78319
5.9328
6.12947
6.36404
6.60812
6.85132
7.09048
7.3156
7.52729
7.72801
7.91315
8.08409
8.24159
8.37946
8.49885
8.60541
8.70298
8.79087
8.87053
8.94346
9.00876
9.06745
9.12083
9.16868
9.21242
9.25412
9.29445
9.33185
9.36621
9.39788
9.42632
9.4519
9.47514
9.4958
9.51416
9.53047
9.54429
9.55582
9.56561
9.57409
9.58135
9.58756
9.59293
9.59749
9.60136
9.60467
9.60747
9.60988
9.61202
9.61395
9.61566
9.61716
9.61848
9.61961
9.62057
9.62136
9.62195
9.62233
9.62251
5.34284
5.35676
5.3862
5.43467
5.50825
5.61622
5.77072
5.98128
6.23845
6.5005
6.75838
7.01255
7.248
7.46799
7.67798
7.86977
8.04675
8.21132
8.35282
8.47315
8.58052
8.68002
8.7691
8.84977
8.92425
8.99036
9.04956
9.1037
9.1517
9.19533
9.23752
9.27918
9.31753
9.35263
9.3852
9.41416
9.44014
9.46393
9.48492
9.50359
9.52031
9.53427
9.54571
9.5554
9.56386
9.57106
9.57721
9.58256
9.58706
9.59086
9.59412
9.59686
9.5992
9.6013
9.60323
9.60494
9.60643
9.60777
9.60891
9.60989
9.6107
9.6113
9.61168
9.61186
5.18717
5.20012
5.22768
5.27349
5.3442
5.45066
5.60864
5.83368
6.11773
6.39812
6.66997
6.9404
7.18531
7.41255
7.63244
7.83017
8.01261
8.18529
8.33001
8.4502
8.55772
8.65938
8.74935
8.8307
8.90694
8.97363
9.0331
9.0881
9.136
9.17918
9.22171
9.265
9.30424
9.33997
9.37354
9.40292
9.42918
9.45356
9.47482
9.49372
9.51094
9.52501
9.53628
9.5458
9.55424
9.56135
9.56742
9.57274
9.57717
9.58089
9.5841
9.58676
9.58902
9.59108
9.59301
9.59471
9.5962
9.59755
9.5987
9.59969
9.60053
9.60115
9.60153
9.60171
5.03681
5.04865
5.07397
5.11648
5.1832
5.28638
5.44589
5.68572
6.00271
6.3012
6.58559
6.87435
7.12741
7.36038
7.59146
7.79407
7.98109
8.16363
8.31104
8.42973
8.53659
8.641
8.73146
8.81306
8.89149
8.95848
9.01787
9.074
9.12154
9.1638
9.20651
9.2519
9.29195
9.3281
9.36286
9.39253
9.41891
9.44401
9.46543
9.48448
9.50235
9.51647
9.52745
9.53674
9.5452
9.5522
9.55814
9.56346
9.5678
9.57141
9.57458
9.57715
9.57931
9.58131
9.58327
9.58495
9.58643
9.58781
9.58896
9.58995
9.59084
9.59147
9.59184
9.59201
4.89177
4.90238
4.92517
4.96379
5.02539
5.12334
5.28177
5.53606
5.89468
6.21002
6.50444
6.81496
7.07416
7.3107
7.55528
7.76119
7.95142
8.14663
8.29594
8.4114
8.51664
8.62489
8.71529
8.79652
8.87792
8.94479
9.00366
9.06143
9.10827
9.14905
9.19169
9.23995
9.2806
9.31691
9.3532
9.38295
9.40923
9.43526
9.4567
9.47578
9.49453
9.50865
9.5192
9.52816
9.5367
9.54355
9.54933
9.55469
9.55892
9.5624
9.56554
9.56801
9.57004
9.57198
9.57398
9.57565
9.57711
9.57852
9.57966
9.58066
9.5816
9.58224
9.5826
9.58276
4.75205
4.76132
4.78134
4.81554
4.87096
4.96158
5.11556
5.38287
5.79556
6.12484
6.42528
6.76314
7.02544
7.26241
7.52442
7.73127
7.92257
8.13481
8.28477
8.39487
8.49728
8.61122
8.70071
8.78069
8.86636
8.93247
8.99017
9.05047
9.09617
9.13477
9.17697
9.22925
9.27018
9.30621
9.34459
9.37412
9.39999
9.42735
9.44859
9.46748
9.48751
9.50151
9.51145
9.52001
9.52875
9.53539
9.54095
9.54641
9.5505
9.55382
9.55697
9.55931
9.56119
9.56305
9.56514
9.56677
9.56819
9.56966
9.57079
9.57177
9.57279
9.57344
9.57378
9.57394
4.61762
4.62549
4.64255
4.67191
4.72017
4.80129
4.9466
5.22352
5.70814
6.04595
6.34627
6.72026
6.98108
7.21402
7.49978
7.70403
7.89314
8.12902
8.27762
8.37973
8.47774
8.60031
8.68761
8.76505
8.85703
8.92144
8.97705
9.04128
9.08523
9.1208
9.16201
9.22003
9.26064
9.29577
9.33714
9.366
9.39103
9.42032
9.44104
9.45945
9.48132
9.49505
9.50417
9.51219
9.52132
9.52769
9.53294
9.53862
9.54251
9.54562
9.54884
9.55103
9.55273
9.55449
9.55672
9.5583
9.55966
9.56121
9.56231
9.56327
9.5644
9.56505
9.56537
9.56551
4.48844
4.49486
4.50883
4.53303
4.57332
4.64282
4.77438
5.05434
5.63642
5.97353
6.26476
6.6884
6.94092
7.16348
7.48281
7.67921
7.8612
8.13053
8.27454
8.36559
8.45707
8.59273
8.67589
8.74891
8.85034
8.9116
8.9638
9.03413
9.07544
9.10697
9.14634
9.21262
9.25196
9.28528
9.33102
9.35855
9.38211
9.41429
9.434
9.45149
9.47606
9.48924
9.4973
9.50463
9.51445
9.52041
9.52525
9.53131
9.53494
9.53778
9.54115
9.54316
9.54464
9.54626
9.54872
9.55022
9.55149
9.55318
9.55422
9.55513
9.55642
9.55705
9.55734
9.55746
4.36442
4.36939
4.3802
4.39904
4.43073
4.48669
4.59873
4.87023
5.58595
5.90767
6.17703
6.6706
6.90473
7.10799
7.47568
7.65654
7.82421
8.14125
8.27551
8.35203
8.43404
8.58936
8.66542
8.73139
8.84691
8.90286
8.94979
9.02943
9.0668
9.09318
9.12937
9.20752
9.24411
9.27433
9.32653
9.35171
9.37295
9.40945
9.42744
9.44335
9.47188
9.48406
9.49078
9.49721
9.50816
9.51353
9.51781
9.5245
9.52776
9.53024
9.53389
9.53567
9.53688
9.53833
9.54114
9.54251
9.54365
9.54554
9.54649
9.54732
9.54884
9.54944
9.54968
9.54977
4.2455
4.249
4.25666
4.27004
4.29274
4.3336
4.41998
4.66414
5.56433
5.84823
6.07798
6.67111
6.8722
7.04382
7.48148
7.63576
7.77873
8.16385
8.28033
8.3387
8.40706
8.59149
8.65609
8.71128
8.84766
8.89511
8.93419
9.0278
9.05929
9.07932
9.1103
9.20545
9.23703
9.26237
9.32405
9.34544
9.36316
9.40607
9.4213
9.43472
9.46898
9.47947
9.48457
9.48982
9.50252
9.50702
9.51053
9.51822
9.52094
9.52295
9.52708
9.52855
9.52946
9.53066
9.53399
9.53515
9.5361
9.5383
9.5391
9.53981
9.54165
9.54217
9.54236
9.54243
4.13155
4.13363
4.13816
4.14611
4.15965
4.18439
4.23929
4.42651
5.58174
5.79474
5.96079
6.69583
6.84293
6.966
7.50455
7.61658
7.72028
8.20208
8.28855
8.32534
8.37409
8.60094
8.64776
8.68702
8.85388
8.88822
8.91589
9.03008
9.05281
9.0654
9.0881
9.20741
9.23065
9.24869
9.32418
9.33967
9.35224
9.40456
9.41555
9.42517
9.46768
9.47543
9.47862
9.48228
9.49764
9.50087
9.50331
9.51253
9.51447
9.51585
9.52073
9.52177
9.52233
9.5232
9.52729
9.52813
9.5288
9.53147
9.53204
9.53255
9.53486
9.53525
9.53537
9.53541
4.02248
4.02316
4.02466
4.02728
4.03176
4.04001
4.05902
4.14454
5.65167
5.74624
5.81656
6.75271
6.81629
6.8681
7.55073
7.59871
7.643
8.26098
8.29921
8.31188
8.33248
8.62016
8.64022
8.65662
8.86731
8.88201
8.8935
9.03744
9.04718
9.05151
9.06141
9.21471
9.22484
9.23237
9.32769
9.33432
9.33955
9.40544
9.41013
9.41419
9.46841
9.47181
9.47291
9.47442
9.49366
9.49503
9.49602
9.50749
9.50831
9.50887
9.51488
9.51531
9.51551
9.51587
9.52107
9.52143
9.5217
9.52506
9.5253
9.52552
9.52847
9.52864
9.52868
9.5287
)
;

boundaryField
{
    left
    {
        type            zeroGradient;
    }
    right
    {
        type            zeroGradient;
    }
    interface
    {
        type            fixedValue;
        value           nonuniform List<scalar> 
64
(
3.96914
3.96914
3.96914
3.96914
3.96914
3.96914
3.96914
3.96914
5.72318
5.72318
5.72318
6.80358
6.80358
6.80358
7.59007
7.59007
7.59007
8.30509
8.30509
8.30509
8.30509
8.63662
8.63662
8.63662
8.87906
8.87906
8.87906
9.04458
9.04458
9.04458
9.04458
9.22207
9.22207
9.22207
9.33175
9.33175
9.33175
9.40749
9.40749
9.40749
9.47011
9.47011
9.47011
9.47011
9.49218
9.49218
9.49218
9.50531
9.50531
9.50531
9.51217
9.51217
9.51217
9.51217
9.51816
9.51816
9.51816
9.522
9.522
9.522
9.52542
9.52542
9.52542
9.52542
)
;
    }
    bottom
    {
        type            fixedValue;
        value           uniform 10;
    }
    defaultFaces
    {
        type            empty;
    }
}


// ************************************************************************* //
