/*--------------------------------*- C++ -*----------------------------------*\
| =========                 |                                                 |
| \\      /  F ield         | OpenFOAM: The Open Source CFD Toolbox           |
|  \\    /   O peration     | Version:  5.x                                   |
|   \\  /    A nd           | Web:      www.OpenFOAM.org                      |
|    \\/     M anipulation  |                                                 |
\*---------------------------------------------------------------------------*/
FoamFile
{
    version     2.0;
    format      ascii;
    class       volScalarField;
    location    "4.2";
    object      gradTx;
}
// * * * * * * * * * * * * * * * * * * * * * * * * * * * * * * * * * * * * * //

dimensions      [0 -1 0 1 0 0 0];

internalField   nonuniform List<scalar> 
2048
(
0.0214904
0.0642259
0.106201
0.146843
0.185502
0.221458
0.253966
0.282311
0.305884
0.324249
0.337188
0.344716
0.347068
0.344666
0.338069
0.327923
0.314917
0.299738
0.283039
0.265418
0.247395
0.229406
0.2118
0.194842
0.178722
0.163563
0.149435
0.136363
0.124336
0.113314
0.10324
0.0940411
0.0856414
0.0779639
0.0709362
0.0644932
0.058578
0.0531426
0.0481466
0.0435569
0.0393459
0.0354902
0.0319694
0.0287643
0.025856
0.0232252
0.0208517
0.0187145
0.0167921
0.0150623
0.0135032
0.0120928
0.0108096
0.00963318
0.00854401
0.00752425
0.00655801
0.00563157
0.00473356
0.00385494
0.00298894
0.00213073
0.001277
0.000425457
0.0637344
0.190497
0.315061
0.435747
0.550628
0.657544
0.754236
0.838534
0.908583
0.963057
1.0013
1.02336
1.02996
1.0224
1.00236
0.971798
0.93278
0.887363
0.837504
0.78498
0.731339
0.677871
0.625604
0.575315
0.527555
0.482684
0.440898
0.402263
0.36674
0.334206
0.304482
0.277351
0.252583
0.229946
0.209224
0.190223
0.172777
0.156741
0.141999
0.128453
0.116024
0.104642
0.0942495
0.08479
0.0762083
0.0684475
0.0614481
0.0551479
0.0494828
0.0443874
0.0397962
0.0356443
0.0318681
0.0284063
0.0252011
0.0221996
0.0193544
0.016625
0.0139776
0.0113858
0.00882963
0.00629535
0.00377362
0.00125747
0.104667
0.312909
0.517721
0.716411
0.905811
1.08229
1.24201
1.38121
1.49671
1.58621
1.6486
1.68401
1.69371
1.67993
1.64556
1.59392
1.52847
1.45266
1.36974
1.28267
1.19399
1.10582
1.01982
0.937241
0.858955
0.785521
0.717237
0.654187
0.596286
0.543316
0.494965
0.450862
0.410615
0.373836
0.340165
0.309283
0.280916
0.254833
0.230845
0.208795
0.188557
0.170024
0.153102
0.137703
0.123739
0.111117
0.0997413
0.0895085
0.0803136
0.0720493
0.0646078
0.0578824
0.0517684
0.0461647
0.0409761
0.0361152
0.0315039
0.0270756
0.0227753
0.0185602
0.0143984
0.0102684
0.00615709
0.00205243
0.144569
0.432339
0.715753
0.991233
1.2544
1.50007
1.72264
1.91656
2.0771
2.20087
2.28627
2.33356
2.34469
2.32295
2.2726
2.19839
2.10528
1.99815
1.88159
1.75972
1.63607
1.51356
1.39444
1.28038
1.17251
1.07156
0.977878
0.891539
0.81239
0.740093
0.674185
0.614124
0.559343
0.509288
0.463455
0.421401
0.38275
0.34719
0.314467
0.284373
0.256742
0.231434
0.208329
0.187311
0.168264
0.151061
0.13557
0.12165
0.109154
0.0979334
0.0878401
0.078726
0.0704461
0.0628601
0.0558354
0.0492499
0.0429957
0.0369805
0.0311293
0.0253839
0.0197021
0.0140557
0.00843114
0.00281174
0.183599
0.549301
0.910142
1.26183
1.5988
1.9142
2.20036
2.44963
2.65537
2.81293
2.92018
2.97759
2.98799
2.95597
2.88731
2.78838
2.66574
2.52577
2.37443
2.21703
2.05812
1.90134
1.7495
1.6046
1.468
1.3405
1.22248
1.11397
1.01472
0.924232
0.841877
0.766915
0.698583
0.636153
0.578969
0.526469
0.478181
0.433719
0.392773
0.355092
0.320478
0.288769
0.259823
0.233507
0.209677
0.188178
0.168841
0.151486
0.135927
0.121974
0.109438
0.0981316
0.0878693
0.0784714
0.0697677
0.0616013
0.053834
0.0463486
0.0390508
0.0318689
0.0247518
0.0176662
0.0106013
0.00353727
0.221793
0.663961
1.10132
1.52911
1.94063
2.32714
2.67855
2.98456
3.23623
3.42734
3.55519
3.62065
3.6277
3.58252
3.49266
3.36631
3.21173
3.03691
2.84923
2.65525
2.46048
2.26932
2.08502
1.90985
1.74531
1.59221
1.45091
1.32134
1.20313
1.09563
0.99797
0.909199
0.82833
0.754443
0.68673
0.624511
0.56723
0.514437
0.465771
0.420949
0.379751
0.342001
0.307549
0.276247
0.247933
0.222423
0.199513
0.178982
0.160602
0.144145
0.129382
0.116086
0.104032
0.0929997
0.0827807
0.0731824
0.0640355
0.0551984
0.0465584
0.0380323
0.0295624
0.0211112
0.0126747
0.00423136
0.259077
0.776149
1.28921
1.79332
2.28073
2.7406
3.15984
3.52485
3.82373
4.04835
4.19543
4.26651
4.26707
4.20531
4.09086
3.93391
3.74457
3.53251
3.30661
3.07472
2.84336
2.61759
2.40104
2.19616
2.00445
1.82669
1.66314
1.51365
1.37766
1.25433
1.14255
1.04109
0.948718
0.864303
0.78688
0.715662
0.650019
0.589447
0.533548
0.482015
0.434613
0.391165
0.351524
0.31554
0.283036
0.253799
0.227587
0.204138
0.183183
0.164453
0.14768
0.1326
0.118948
0.106464
0.0948974
0.0840187
0.0736272
0.0635565
0.0536773
0.0438962
0.0341515
0.0244037
0.0146593
0.00489669
0.295263
0.885374
1.47319
2.05407
2.61929
3.15562
3.64632
4.0735
4.42147
4.67972
4.84444
4.91823
4.90865
4.82636
4.68346
4.49236
4.26512
4.01314
3.7469
3.47561
3.20682
2.94618
2.69762
2.4636
2.24552
2.04405
1.85932
1.69102
1.53844
1.40051
1.27582
1.16283
1.06
0.965985
0.879657
0.800138
0.726741
0.658922
0.596256
0.538417
0.485167
0.436342
0.391811
0.351435
0.315026
0.282342
0.2531
0.226991
0.203703
0.182927
0.164361
0.147702
0.132648
0.118896
0.106153
0.0941463
0.0826442
0.0714562
0.060437
0.0494857
0.0385393
0.0275582
0.0165636
0.00553609
0.33006
0.990838
1.6522
2.31035
2.95583
3.57269
4.13962
4.6332
5.03276
5.32486
5.5053
5.57834
5.55434
5.44707
5.27149
5.04239
4.77386
4.47908
4.17019
3.85789
3.55079
3.25509
2.97482
2.7123
2.46872
2.24452
2.03967
1.8537
1.68574
1.53445
1.3981
1.27476
1.16253
1.05983
0.965374
0.878221
0.797647
0.723086
0.654093
0.590328
0.531558
0.477647
0.428503
0.38401
0.343973
0.308118
0.276113
0.247599
0.222216
0.199619
0.17947
0.161435
0.145175
0.130341
0.11659
0.103608
0.0911279
0.0789351
0.0668708
0.0548287
0.0427472
0.0305894
0.0183962
0.00615231
0.363082
1.09145
1.82468
2.56055
3.28922
3.99173
4.64103
5.20645
5.66078
5.98696
6.18072
6.24885
6.20548
6.06828
5.85546
5.58433
5.27099
4.93036
4.57637
4.22137
3.87511
3.54426
3.23272
2.94248
2.67433
2.42841
2.2045
2.002
1.81986
1.6565
1.50979
1.3773
1.25674
1.14624
1.0444
0.950236
0.863027
0.7822
0.707293
0.637953
0.57396
0.515223
0.461714
0.413361
0.369966
0.331212
0.29671
0.266041
0.238796
0.214592
0.193064
0.173852
0.156579
0.140849
0.126262
0.112455
0.099124
0.0860341
0.0730137
0.059954
0.0467973
0.0335124
0.0201654
0.00674786
0.393856
1.18588
1.98865
2.80248
3.61772
4.41212
5.15154
5.79574
6.30875
6.66909
6.87307
6.93127
6.86287
6.69032
6.43547
6.11821
5.75648
5.36687
4.96518
4.56573
4.17958
3.81367
3.4715
3.15445
2.86274
2.59614
2.35422
2.13629
1.94118
1.76707
1.61135
1.47097
1.34312
1.22567
1.11714
1.01654
0.923194
0.836546
0.756112
0.681524
0.612569
0.549226
0.49157
0.439597
0.393108
0.351727
0.314992
0.282412
0.253527
0.227922
0.20521
0.18501
0.166915
0.150475
0.135223
0.120739
0.106681
0.0927957
0.078902
0.0648912
0.0507117
0.0363415
0.0218784
0.00732478
0.42184
1.27254
2.1417
3.03336
3.93891
4.83273
5.67195
6.40362
6.98003
7.37427
7.58446
7.62669
7.52676
7.313
7.01125
6.64379
6.23019
5.7884
5.33625
4.89055
4.46391
4.06328
3.69135
3.34859
3.03444
2.7482
2.4893
2.257
2.05011
1.8666
1.70328
1.5563
1.42222
1.29863
1.18402
1.07749
0.978473
0.88642
0.800825
0.721288
0.647597
0.579822
0.518201
0.462836
0.413513
0.369777
0.33107
0.296819
0.266507
0.239693
0.215977
0.19497
0.176241
0.15928
0.143535
0.128516
0.113849
0.0992629
0.0845718
0.0696698
0.0545123
0.0390898
0.0235412
0.00788443
0.446447
1.3497
2.2811
3.24986
4.24968
5.25183
6.20286
7.03296
7.67829
8.10556
8.3167
8.33568
8.19682
7.93568
7.58218
7.16068
6.69192
6.19472
5.68911
5.19528
4.72778
4.29312
3.89258
3.5254
3.19001
2.88518
2.61027
2.36459
2.14706
1.95554
1.78616
1.63393
1.49463
1.36563
1.24548
1.13347
1.02919
0.932122
0.841715
0.757511
0.679269
0.607181
0.541737
0.483192
0.4313
0.385485
0.34507
0.309381
0.27784
0.249992
0.225437
0.203791
0.184614
0.167325
0.15126
0.135846
0.120678
0.105478
0.090058
0.0743187
0.0582202
0.0417691
0.0251576
0.00842722
0.467066
1.41552
2.40383
3.44812
4.5462
5.66708
6.74476
7.68703
8.4077
8.866
9.07126
9.05832
8.87218
8.55726
8.1474
7.66834
7.14152
6.58566
6.02323
5.47926
4.97085
4.50327
4.0756
3.68551
3.33016
3.00771
2.71768
2.45953
2.23242
2.03435
1.86057
1.70452
1.56097
1.4272
1.30197
1.18482
1.07565
0.973949
0.879069
0.790469
0.707819
0.631468
0.562295
0.50078
0.446593
0.398981
0.357124
0.320221
0.287635
0.258912
0.233662
0.21153
0.192089
0.174674
0.158464
0.142786
0.127218
0.111481
0.0953936
0.0788658
0.0618559
0.0443888
0.0267288
0.00895236
0.483101
1.46816
2.50672
3.62381
4.82387
6.07535
7.298
8.36981
9.17308
9.65862
9.84927
9.79416
9.55133
9.17622
8.70581
8.16618
7.57899
6.96123
6.33799
5.74165
5.19274
4.69392
4.24091
3.82966
3.45568
3.11652
2.81217
2.54231
2.30655
2.10343
1.92715
1.7688
1.62188
1.48389
1.35389
1.23187
1.11815
1.01219
0.91317
0.820453
0.733496
0.65284
0.579978
0.515707
0.45952
0.410401
0.367371
0.329473
0.296004
0.266545
0.240723
0.218235
0.198714
0.181392
0.165218
0.149395
0.133515
0.11731
0.100609
0.0833387
0.06544
0.0469563
0.0282527
0.00945754
0.493997
1.50584
2.58653
3.77221
5.07724
6.47258
7.86272
9.08624
9.98012
10.4863
10.6514
10.5422
10.2321
9.79067
9.25618
8.65351
8.00456
7.32169
6.63264
5.98136
5.3931
4.86543
4.38914
3.9587
3.56749
3.21234
2.89439
2.61341
2.36973
2.16317
1.98659
1.82758
1.67802
1.53621
1.40167
1.27491
1.15697
1.04712
0.944294
0.847767
0.756564
0.671437
0.594859
0.528072
0.470213
0.419884
0.375959
0.337275
0.30306
0.272985
0.246687
0.223947
0.204531
0.187545
0.171594
0.155728
0.139613
0.122999
0.105729
0.0877641
0.0689938
0.0494758
0.029723
0.00993857
0.499286
1.52699
2.64014
3.88833
5.29999
6.85358
8.43879
9.84264
10.8357
11.3517
11.4777
11.3011
10.9114
10.3984
9.79725
9.12956
8.41889
7.66773
6.90625
6.19698
5.57162
5.01833
4.52098
4.07363
3.66663
3.29595
2.96504
2.67336
2.42213
2.21382
2.03964
1.88176
1.73005
1.58468
1.44569
1.31417
1.19234
1.07901
0.972699
0.872739
0.777313
0.687377
0.606975
0.537967
0.478813
0.427569
0.383039
0.343772
0.308913
0.278328
0.251624
0.228692
0.209569
0.193206
0.177675
0.16184
0.145552
0.128578
0.110775
0.0921693
0.0725413
0.0519486
0.0311275
0.0103889
0.498614
1.53031
2.66471
3.96705
5.48495
7.21168
9.02552
10.6472
11.7482
12.2562
12.3278
12.0688
11.5855
10.997
10.3278
9.59331
8.82311
8.0007
7.15759
6.38658
5.7281
5.15351
4.63718
4.17557
3.75427
3.36804
3.02484
2.72269
2.46376
2.25551
2.08715
1.93235
1.77855
1.62978
1.48631
1.34979
1.22449
1.10813
0.99861
0.895726
0.796073
0.700736
0.616311
0.545484
0.485473
0.433592
0.388771
0.349114
0.313667
0.282672
0.255599
0.232476
0.213843
0.198457
0.183552
0.167775
0.151366
0.134074
0.115758
0.0965828
0.0761111
0.0543713
0.0324472
0.0107992
0.491774
1.5149
2.65782
4.00337
5.62405
7.53837
9.62136
11.5107
12.7281
13.2002
13.2005
12.8436
12.2491
11.584
10.847
10.0432
9.21911
8.32287
7.38491
6.54757
5.86257
5.27225
4.73841
4.26578
3.83175
3.42921
3.07463
2.76206
2.49442
2.28817
2.13015
1.98055
1.82403
1.67196
1.52389
1.38184
1.25363
1.13474
1.02219
0.917128
0.813236
0.711541
0.622782
0.550719
0.490375
0.438076
0.393319
0.353462
0.317409
0.286117
0.258688
0.235285
0.217344
0.203392
0.189331
0.173566
0.157087
0.139511
0.120678
0.101036
0.0797405
0.0567352
0.033654
0.0111566
0.47873
1.48035
2.61772
3.99262
5.70851
7.82289
10.2232
12.4476
13.7884
14.1808
14.0942
13.6238
12.8954
12.1573
11.3546
10.4769
9.60974
8.63786
7.58568
6.67633
5.97552
5.37648
4.82511
4.34567
3.90064
3.4798
3.11529
2.79229
2.51359
2.31144
2.16989
2.0278
1.86679
1.71164
1.55885
1.41021
1.27995
1.15913
1.04351
0.937402
0.829288
0.719736
0.626211
0.553788
0.493733
0.441119
0.396861
0.356992
0.320202
0.288773
0.260978
0.237067
0.220034
0.20813
0.19514
0.179222
0.162739
0.144915
0.125515
0.105567
0.08348
0.0590234
0.0347087
0.0114443
0.459624
1.42677
2.54346
3.9308
5.72901
8.05176
10.8252
13.4772
14.9457
15.191
15.0068
14.4089
13.515
12.7152
11.8513
10.89
9.99913
8.95124
7.75607
6.76795
6.06816
5.46895
4.89716
4.41688
3.96287
3.51966
3.14791
2.81451
2.52036
2.32454
2.20797
2.07585
1.9068
1.74924
1.59165
1.43456
1.3037
1.18169
1.06246
0.957097
0.844858
0.725152
0.626301
0.554855
0.495821
0.442766
0.399584
0.359903
0.322063
0.290764
0.262582
0.237733
0.221832
0.212826
0.201141
0.184716
0.168347
0.150316
0.130224
0.110221
0.0874007
0.0612075
0.0355578
0.0116407
0.434782
1.35484
2.435
3.81489
5.67608
8.20831
11.4177
14.6255
16.2214
16.2165
15.9366
15.2006
14.0944
13.2576
12.3398
11.2753
10.3932
9.27128
7.8904
6.8157
6.14286
5.5536
4.95341
4.48135
4.02089
3.5479
3.17381
2.83034
2.51325
2.32611
2.24655
2.12692
1.94348
1.78519
1.62296
1.45422
1.32518
1.20287
1.07867
0.976883
0.860782
0.72745
0.622599
0.554161
0.496993
0.442977
0.401706
0.362433
0.322939
0.292238
0.263656
0.237133
0.222599
0.217687
0.207536
0.189963
0.17394
0.155761
0.134714
0.115059
0.0916029
0.0632408
0.0361318
0.0117198
0.404694
1.26581
2.29338
3.6432
5.54062
8.2724
11.9845
15.9273
17.6439
17.2319
16.8835
16.0045
14.6144
13.7866
12.8255
11.6206
10.8004
9.61009
7.98015
6.81056
6.20373
5.63593
4.99101
4.54155
4.07798
3.56241
3.19471
2.84216
2.49002
2.31402
2.28851
2.18383
1.97537
1.82008
1.65373
1.468
1.34489
1.22337
1.09134
0.997616
0.87819
0.726048
0.614457
0.552074
0.497715
0.441569
0.403484
0.364881
0.322666
0.293379
0.264424
0.235043
0.222117
0.222999
0.214592
0.194785
0.179561
0.161326
0.138833
0.120164
0.0962285
0.0650496
0.0363427
0.0116512
0.369998
1.16141
2.12067
3.41573
5.3146
8.22035
12.4999
17.4295
19.2502
18.1955
17.8503
16.8324
15.0467
14.3078
13.3181
11.9064
11.2326
9.98493
8.01275
6.74059
6.25743
5.7236
5.00437
4.60075
4.13859
3.55921
3.21295
2.85342
2.44744
2.28506
2.33779
2.25025
1.99973
1.85473
1.6854
1.47395
1.36354
1.2442
1.09902
1.02042
0.898623
0.720021
0.600982
0.549151
0.498614
0.438134
0.405245
0.367641
0.320911
0.294433
0.265208
0.231142
0.220061
0.229152
0.222659
0.198867
0.185286
0.167136
0.142331
0.125654
0.101476
0.0665191
0.036083
0.0114015
0.33144
1.04383
1.91999
3.13439
4.99199
8.02532
12.924
19.1948
21.0903
19.0421
18.846
17.7053
15.3494
14.8328
13.8338
12.1017
11.7066
10.42
7.96993
6.59027
6.31415
5.82705
4.98379
4.66357
4.20895
3.5315
3.2318
2.8691
2.38098
2.23463
2.39976
2.33101
2.01188
1.89044
1.72014
1.46896
1.38233
1.26685
1.09934
1.04679
0.924172
0.707961
0.580991
0.546221
0.500525
0.431933
0.407428
0.371246
0.317093
0.295731
0.266472
0.224982
0.215963
0.236685
0.232205
0.201691
0.191245
0.17339
0.144817
0.131698
0.107621
0.0674743
0.0352281
0.0109368
0.289841
0.915543
1.69537
2.80317
4.56982
7.65847
13.197
21.306
23.2313
19.6725
19.8895
18.6575
15.461
15.3815
14.3979
12.1593
12.246
10.9485
7.82549
6.33982
6.38881
5.96042
4.91354
4.73664
4.2978
3.46848
3.25592
2.89624
2.28439
2.15629
2.48164
2.43245
2.00438
1.92931
1.76119
1.44827
1.40309
1.29354
1.08852
1.07878
0.957655
0.687801
0.552961
0.544477
0.504568
0.421741
0.410645
0.376431
0.310273
0.297736
0.268863
0.215952
0.20917
0.246324
0.243852
0.202451
0.19766
0.180403
0.145702
0.138538
0.115038
0.0676527
0.0336409
0.0102268
0.246048
0.779237
1.45157
2.42821
4.04921
7.09107
13.2307
23.8715
25.7634
19.9415
21.0154
19.7418
15.2921
15.9861
15.0483
12.0087
12.8843
11.6154
7.54261
5.96466
6.50242
6.14264
4.76946
4.82967
4.41729
3.3537
3.292
2.9445
2.14926
2.04129
2.59306
2.56296
1.966
1.97471
1.81326
1.40483
1.42863
1.32751
1.06092
1.11923
1.00283
0.656587
0.514987
0.545588
0.512229
0.405653
0.415767
0.384213
0.29901
0.301098
0.273277
0.203238
0.198791
0.259046
0.258433
0.199942
0.204898
0.188646
0.144115
0.146527
0.12423
0.0666689
0.0311824
0.00924968
0.2009
0.637641
1.1938
2.01756
3.4365
6.29804
12.899
27.0322
28.8085
19.6413
22.2819
21.0354
14.7148
16.6963
15.8401
11.5482
13.668
12.4798
7.07041
5.43486
6.68363
6.39884
4.51581
4.95685
4.58422
3.16295
3.34961
3.02685
1.96447
1.87798
2.74666
2.7336
1.88035
2.03188
1.88302
1.32834
1.46316
1.37338
1.00826
1.17203
1.06461
0.610195
0.464751
0.551823
0.525476
0.380835
0.424034
0.395994
0.281184
0.306731
0.280912
0.185778
0.183635
0.276132
0.277058
0.192414
0.213534
0.198811
0.138805
0.156169
0.135856
0.0639687
0.0277292
0.00799901
0.15519
0.493409
0.927508
1.58088
2.74392
5.26323
12.025
30.9682
32.5296
18.4812
23.7804
22.6477
13.549
17.5851
16.8514
10.6338
14.6621
13.6185
6.33987
4.71498
6.9703
6.76201
4.10143
5.13864
4.82139
2.86167
3.44236
3.16029
1.71562
1.65121
2.95873
2.9589
1.72415
2.10877
1.97973
1.20423
1.51278
1.4376
0.918799
1.24257
1.14934
0.54299
0.399521
0.566171
0.54689
0.343215
0.437206
0.413675
0.253761
0.315916
0.293338
0.162206
0.162147
0.299242
0.301197
0.177396
0.224444
0.211875
0.128008
0.168182
0.150773
0.0587713
0.0231992
0.00648964
0.109632
0.349004
0.658023
1.12886
1.98994
3.98687
10.3656
35.9072
37.1432
16.0638
25.6482
24.7279
11.5461
18.7576
18.1891
9.0667
15.9555
15.1289
5.25905
3.76426
7.41101
7.27509
3.45519
5.40404
5.15923
2.40183
3.58939
3.3665
1.38434
1.3416
3.24992
3.25784
1.46531
2.21702
2.11593
1.01225
1.58617
1.52901
0.776291
1.33822
1.26506
0.447432
0.316179
0.592462
0.579834
0.287117
0.457748
0.439803
0.212524
0.330428
0.312561
0.130803
0.132326
0.330477
0.332782
0.151486
0.238908
0.229184
0.109298
0.18357
0.170068
0.0499998
0.0175872
0.00476305
0.0648509
0.206613
0.39031
0.672478
1.19871
2.49543
7.5941
42.1329
42.9347
11.8564
28.0837
27.4753
8.37009
20.3598
19.9972
6.57831
17.6694
17.1323
3.70774
2.53727
8.06631
7.99349
2.48058
5.79347
5.63764
1.71822
3.81719
3.67247
0.947653
0.924915
3.64587
3.65502
1.06051
2.37326
2.30816
0.724965
1.69537
1.65942
0.558742
1.46895
1.42174
0.313619
0.211287
0.635466
0.628653
0.204827
0.489051
0.477731
0.151752
0.352698
0.341076
0.0894429
0.0916549
0.372454
0.374339
0.110096
0.258747
0.252544
0.0794044
0.203719
0.195095
0.0361992
0.0110108
0.002889
0.0213608
0.0680825
0.128734
0.222262
0.398532
0.854276
3.27947
49.9935
50.2752
5.15876
31.3646
31.1482
3.57507
22.5903
22.4644
2.8131
19.9658
19.7767
1.53151
0.985184
9.00964
8.98803
1.04964
6.36196
6.3079
0.724263
4.16188
4.11092
0.377306
0.371345
4.17781
4.18203
0.45252
2.60057
2.5778
0.305879
1.85669
1.84433
0.237026
1.6481
1.63156
0.128799
0.0812161
0.700955
0.698914
0.0861076
0.535693
0.531789
0.0638485
0.386013
0.381912
0.0355408
0.0370131
0.428365
0.429123
0.0471745
0.286473
0.284318
0.0340018
0.23051
0.227513
0.0154431
0.00376723
0.000961327
)
;

boundaryField
{
    left
    {
        type            calculated;
        value           uniform 0;
    }
    right
    {
        type            calculated;
        value           uniform 0;
    }
    interface
    {
        type            calculated;
        value           nonuniform List<scalar> 
64
(
0.0213608
0.0680825
0.128734
0.222262
0.398532
0.854276
3.27947
49.9935
50.2752
5.15876
31.3646
31.1482
3.57507
22.5903
22.4644
2.8131
19.9658
19.7767
1.53151
0.985184
9.00964
8.98803
1.04964
6.36196
6.3079
0.724263
4.16188
4.11092
0.377306
0.371345
4.17781
4.18203
0.45252
2.60057
2.5778
0.305879
1.85669
1.84433
0.237026
1.6481
1.63156
0.128799
0.0812161
0.700955
0.698914
0.0861076
0.535693
0.531789
0.0638485
0.386013
0.381912
0.0355408
0.0370131
0.428365
0.429123
0.0471745
0.286473
0.284318
0.0340018
0.23051
0.227513
0.0154431
0.00376723
0.000961327
)
;
    }
    bottom
    {
        type            calculated;
        value           nonuniform List<scalar> 
64
(
0.0214904
0.0642259
0.106201
0.146843
0.185502
0.221458
0.253966
0.282311
0.305884
0.324249
0.337188
0.344716
0.347068
0.344666
0.338069
0.327923
0.314917
0.299738
0.283039
0.265418
0.247395
0.229406
0.2118
0.194842
0.178722
0.163563
0.149435
0.136363
0.124336
0.113314
0.10324
0.0940411
0.0856414
0.0779639
0.0709362
0.0644932
0.058578
0.0531426
0.0481466
0.0435569
0.0393459
0.0354902
0.0319694
0.0287643
0.025856
0.0232252
0.0208517
0.0187145
0.0167921
0.0150623
0.0135032
0.0120928
0.0108096
0.00963318
0.00854401
0.00752425
0.00655801
0.00563157
0.00473356
0.00385494
0.00298894
0.00213073
0.001277
0.000425457
)
;
    }
    defaultFaces
    {
        type            empty;
    }
}


// ************************************************************************* //
