/*--------------------------------*- C++ -*----------------------------------*\
| =========                 |                                                 |
| \\      /  F ield         | OpenFOAM: The Open Source CFD Toolbox           |
|  \\    /   O peration     | Version:  5.x                                   |
|   \\  /    A nd           | Web:      www.OpenFOAM.org                      |
|    \\/     M anipulation  |                                                 |
\*---------------------------------------------------------------------------*/
FoamFile
{
    version     2.0;
    format      ascii;
    class       volScalarField;
    location    "5.8";
    object      gradTy;
}
// * * * * * * * * * * * * * * * * * * * * * * * * * * * * * * * * * * * * * //

dimensions      [0 -1 0 1 0 0 0];

internalField   nonuniform List<scalar> 
2048
(
-20.2596
-20.1638
-19.9731
-19.6899
-19.3177
-18.8614
-18.328
-17.7257
-17.0645
-16.3557
-15.6111
-14.8429
-14.0631
-13.2827
-12.5119
-11.7592
-11.0319
-10.3356
-9.67435
-9.05101
-8.46703
-7.92285
-7.41805
-6.95153
-6.52171
-6.12665
-5.76424
-5.43223
-5.12839
-4.85053
-4.59659
-4.36462
-4.15286
-3.9597
-3.78369
-3.62352
-3.478
-3.34603
-3.2266
-3.11875
-3.02159
-2.93426
-2.85594
-2.78583
-2.72319
-2.6673
-2.61749
-2.57312
-2.53363
-2.49848
-2.4672
-2.43938
-2.41465
-2.39272
-2.37332
-2.35625
-2.34135
-2.32849
-2.31759
-2.30857
-2.3014
-2.29604
-2.29247
-2.29069
-20.3371
-20.2404
-20.048
-19.7619
-19.3856
-18.9239
-18.3836
-17.7733
-17.1031
-16.3846
-15.6301
-14.8523
-14.0635
-13.275
-12.4971
-11.7387
-11.0068
-10.3071
-9.64369
-9.01913
-8.43479
-7.89096
-7.38704
-6.9218
-6.49353
-6.1002
-5.73958
-5.40939
-5.10731
-4.83113
-4.57875
-4.34821
-4.13775
-3.94576
-3.77081
-3.61161
-3.46697
-3.33582
-3.21715
-3.11004
-3.01357
-2.9269
-2.84922
-2.77972
-2.71766
-2.66231
-2.61301
-2.56911
-2.53004
-2.49527
-2.46433
-2.4368
-2.41233
-2.3906
-2.37137
-2.35443
-2.33963
-2.32685
-2.31599
-2.30701
-2.29986
-2.29452
-2.29096
-2.28918
-20.4844
-20.3862
-20.1905
-19.8991
-19.5151
-19.0431
-18.4898
-17.8641
-17.1765
-16.4394
-15.666
-14.8697
-14.0636
-13.2596
-12.4683
-11.6989
-10.9584
-10.2525
-9.58492
-8.95818
-8.37328
-7.8302
-7.32806
-6.86534
-6.44009
-6.05008
-5.69293
-5.3662
-5.06749
-4.79451
-4.54509
-4.31726
-4.10924
-3.91947
-3.74651
-3.58912
-3.44614
-3.31653
-3.19932
-3.09357
-2.99841
-2.913
-2.83652
-2.76818
-2.70721
-2.6529
-2.60456
-2.56155
-2.52329
-2.48924
-2.45894
-2.43196
-2.40795
-2.38661
-2.36769
-2.351
-2.33639
-2.32374
-2.31299
-2.30407
-2.29697
-2.29165
-2.2881
-2.28634
-20.6933
-20.593
-20.393
-20.0944
-19.6997
-19.2133
-18.6416
-17.9936
-17.2809
-16.5169
-15.7161
-14.8932
-14.0622
-13.236
-12.4258
-11.6408
-10.8882
-10.1736
-9.50049
-8.87092
-8.2855
-7.74374
-7.24434
-6.78537
-6.36455
-5.97936
-5.6272
-5.30545
-5.01156
-4.74312
-4.49789
-4.27388
-4.06931
-3.88262
-3.71244
-3.55757
-3.41691
-3.28945
-3.17426
-3.07043
-2.97711
-2.89346
-2.81868
-2.75197
-2.69256
-2.63971
-2.59273
-2.55097
-2.51385
-2.48082
-2.45141
-2.42521
-2.40186
-2.38106
-2.36258
-2.34622
-2.33187
-2.31941
-2.30878
-2.29995
-2.2929
-2.28761
-2.28409
-2.28233
-20.9564
-20.8539
-20.6489
-20.3418
-19.9343
-19.4299
-18.8348
-18.1584
-17.4133
-16.6144
-15.778
-14.9207
-14.0578
-13.2034
-12.3692
-11.5646
-10.7972
-10.0719
-9.39221
-8.75952
-8.1739
-7.63425
-7.13866
-6.68472
-6.26972
-5.89079
-5.54505
-5.22967
-4.94191
-4.67922
-4.43928
-4.22004
-4.01974
-3.83686
-3.67012
-3.51835
-3.38055
-3.25574
-3.14304
-3.04159
-2.95055
-2.86911
-2.79646
-2.73179
-2.67433
-2.62332
-2.57805
-2.53786
-2.50217
-2.47042
-2.44213
-2.4169
-2.39436
-2.37423
-2.35628
-2.34034
-2.32629
-2.31404
-2.30357
-2.29483
-2.28784
-2.28259
-2.27908
-2.27733
-21.2674
-21.1627
-20.9526
-20.6365
-20.2147
-19.6895
-19.0666
-18.3557
-17.5709
-16.7292
-15.8494
-14.9502
-14.0489
-13.1606
-12.2979
-11.4705
-10.6857
-9.94839
-9.26146
-8.62576
-8.04056
-7.50401
-7.01348
-6.56592
-6.15812
-5.78684
-5.44889
-5.14117
-4.86075
-4.60489
-4.37119
-4.15753
-3.96219
-3.78372
-3.62091
-3.47272
-3.33819
-3.21644
-3.10662
-3.00792
-2.91954
-2.84068
-2.77053
-2.70827
-2.6531
-2.60426
-2.56101
-2.52268
-2.48866
-2.4584
-2.43143
-2.40733
-2.38574
-2.36638
-2.34904
-2.33356
-2.31985
-2.30784
-2.29752
-2.28888
-2.28194
-2.27672
-2.27323
-2.27148
-21.6202
-21.5136
-21.2991
-20.9743
-20.5375
-19.9894
-19.3346
-18.5835
-17.7517
-16.8592
-15.9279
-14.9795
-14.0334
-13.1062
-12.211
-11.3579
-10.5539
-9.80364
-9.10934
-8.47111
-7.88731
-7.35511
-6.871
-6.43123
-6.03203
-5.66976
-5.34088
-5.04205
-4.77008
-4.52205
-4.29541
-4.08802
-3.89818
-3.72456
-3.56608
-3.4218
-3.29087
-3.17248
-3.06585
-2.97022
-2.88481
-2.80883
-2.7415
-2.68197
-2.62941
-2.58302
-2.54206
-2.50582
-2.47369
-2.44513
-2.41963
-2.3968
-2.37626
-2.35776
-2.34108
-2.3261
-2.31274
-2.30097
-2.2908
-2.28225
-2.27535
-2.27015
-2.26666
-2.26492
-22.0091
-21.9015
-21.6838
-21.3514
-20.9
-20.3276
-19.6375
-18.8403
-17.9539
-17.0022
-16.0113
-15.0064
-14.0096
-13.0388
-12.1077
-11.2265
-10.4019
-9.63817
-8.93677
-8.2969
-7.71579
-7.18943
-6.71328
-6.28277
-5.89356
-5.54159
-5.22303
-4.93422
-4.67174
-4.43243
-4.21357
-4.01299
-3.82907
-3.66061
-3.50672
-3.36659
-3.2395
-3.12471
-3.0215
-2.92917
-2.84697
-2.77415
-2.70991
-2.65339
-2.60372
-2.56004
-2.52159
-2.48766
-2.45761
-2.43089
-2.40702
-2.38556
-2.36617
-2.34858
-2.33261
-2.31813
-2.30512
-2.29358
-2.28354
-2.27506
-2.26819
-2.26299
-2.2595
-2.25775
-22.4286
-22.3212
-22.1023
-21.7646
-21.3
-20.703
-19.9745
-19.1252
-18.1762
-17.1564
-16.0973
-15.0286
-13.9753
-12.9567
-11.9869
-11.0758
-10.2298
-9.45238
-8.74453
-8.10431
-7.52755
-7.00877
-6.54223
-6.12249
-5.74464
-5.40422
-5.09711
-4.81941
-4.56739
-4.33763
-4.12718
-3.93383
-3.75608
-3.59297
-3.44381
-3.30798
-3.18488
-3.07385
-2.97424
-2.88537
-2.80658
-2.73715
-2.67625
-2.62299
-2.57644
-2.53571
-2.49998
-2.46853
-2.44071
-2.41598
-2.39383
-2.37385
-2.35568
-2.33905
-2.32379
-2.30982
-2.29715
-2.2858
-2.27587
-2.26742
-2.26056
-2.25535
-2.25184
-2.25009
-22.8732
-22.7677
-22.5506
-22.211
-21.7361
-21.1151
-20.3455
-19.4379
-18.4173
-17.3196
-16.1834
-15.0437
-13.9285
-12.8586
-11.8478
-10.9054
-10.0374
-9.24661
-8.53335
-7.89448
-7.32406
-6.81484
-6.35969
-5.95225
-5.58704
-5.25933
-4.96476
-4.69918
-4.45856
-4.23911
-4.0376
-3.85177
-3.68032
-3.5226
-3.37821
-3.24674
-3.12772
-3.02056
-2.92465
-2.83938
-2.76414
-2.69826
-2.64092
-2.59116
-2.54796
-2.51037
-2.47754
-2.44871
-2.42326
-2.40062
-2.38031
-2.36188
-2.34498
-2.32933
-2.31479
-2.30131
-2.28894
-2.27776
-2.26789
-2.25945
-2.25255
-2.24731
-2.24378
-2.24202
-23.3374
-23.2359
-23.0245
-22.6879
-22.2069
-21.564
-20.7513
-19.7785
-18.6763
-17.49
-16.2672
-15.049
-13.8672
-12.7429
-11.6894
-10.7151
-9.82485
-9.02121
-8.3039
-7.66851
-7.10683
-6.60938
-6.16746
-5.7738
-5.42243
-5.10847
-4.82744
-4.57494
-4.34662
-4.13821
-3.94609
-3.76792
-3.60274
-3.45034
-3.31065
-3.18354
-3.06863
-2.96539
-2.87324
-2.79164
-2.72005
-2.65787
-2.60429
-2.55824
-2.51861
-2.48434
-2.45455
-2.42848
-2.40549
-2.38504
-2.36663
-2.34982
-2.33424
-2.3196
-2.30575
-2.29273
-2.28061
-2.26954
-2.25969
-2.25121
-2.24426
-2.23896
-2.23538
-2.23361
-23.8158
-23.7209
-23.5201
-23.1928
-22.7119
-22.0506
-21.1932
-20.1479
-18.9525
-17.6654
-16.3457
-15.042
-13.7891
-12.6083
-11.5112
-10.5046
-9.59237
-8.77648
-8.05679
-7.42748
-6.87736
-6.39408
-5.96729
-5.5888
-5.25233
-4.95304
-4.68644
-4.44791
-4.23278
-4.03617
-3.85381
-3.6833
-3.5242
-3.37689
-3.24175
-3.11893
-3.00814
-2.90884
-2.82048
-2.74256
-2.67466
-2.6163
-2.56667
-2.52456
-2.48868
-2.45789
-2.43127
-2.40804
-2.3876
-2.36941
-2.35297
-2.33785
-2.32362
-2.30997
-2.2968
-2.28417
-2.27225
-2.26124
-2.25135
-2.24279
-2.23573
-2.23035
-2.22671
-2.22493
-24.3027
-24.2174
-24.0332
-23.7231
-23.2505
-22.5763
-21.6738
-20.5475
-19.2449
-17.8431
-16.416
-15.0195
-13.6922
-12.4539
-11.3129
-10.2743
-9.34027
-8.51273
-7.79257
-7.1725
-6.63723
-6.17069
-5.76089
-5.39887
-5.07813
-4.79427
-4.54288
-4.31916
-4.11816
-3.93413
-3.76185
-3.5988
-3.4454
-3.30285
-3.17201
-3.05338
-2.94671
-2.85134
-2.76675
-2.6925
-2.62826
-2.57381
-2.52833
-2.49039
-2.45844
-2.43127
-2.40791
-2.38759
-2.36976
-2.35388
-2.33947
-2.32608
-2.31324
-2.30059
-2.28804
-2.27574
-2.26394
-2.25292
-2.24294
-2.23423
-2.22703
-2.22154
-2.21784
-2.21604
-24.7925
-24.7203
-24.5594
-24.2762
-23.8225
-23.1435
-22.1965
-20.9794
-19.5525
-18.0203
-16.4746
-14.9787
-13.5745
-12.2787
-11.0943
-10.0244
-9.06911
-8.23019
-7.51161
-6.90468
-6.38814
-5.94099
-5.54996
-5.20552
-4.90109
-4.63322
-4.39773
-4.18959
-4.0037
-3.83319
-3.67126
-3.51523
-3.36695
-3.22869
-3.10183
-2.98729
-2.88473
-2.79326
-2.71242
-2.64175
-2.58109
-2.53061
-2.48951
-2.45597
-2.42814
-2.4047
-2.38468
-2.36731
-2.3521
-2.33857
-2.32624
-2.31463
-2.30322
-2.29156
-2.27955
-2.2675
-2.25575
-2.24464
-2.23449
-2.2256
-2.21819
-2.21257
-2.2088
-2.207
-25.2796
-25.2243
-25.0943
-24.8491
-24.4276
-23.755
-22.7659
-21.4464
-19.8738
-18.1933
-16.518
-14.9159
-13.434
-12.0824
-10.8556
-9.75583
-8.77972
-7.92891
-7.21409
-6.6252
-6.13196
-5.70679
-5.33617
-5.01025
-4.72231
-4.47081
-4.25183
-4.0599
-3.89024
-3.73439
-3.58306
-3.43326
-3.2893
-3.1548
-3.0315
-2.92096
-2.82256
-2.73494
-2.6578
-2.5906
-2.53333
-2.48684
-2.45038
-2.42155
-2.39799
-2.37838
-2.36174
-2.34731
-2.33475
-2.3236
-2.31336
-2.3036
-2.29367
-2.28297
-2.27141
-2.2595
-2.24772
-2.23644
-2.22607
-2.21692
-2.20926
-2.20347
-2.19964
-2.19785
-25.7585
-25.724
-25.6332
-25.4387
-25.0655
-24.4144
-23.3883
-21.9526
-20.2066
-18.3577
-16.5421
-14.8277
-13.2689
-11.8652
-10.5975
-9.46976
-8.47337
-7.60871
-6.89984
-6.3353
-5.87085
-5.46989
-5.12112
-4.81449
-4.5427
-4.30779
-4.10589
-3.93059
-3.77843
-3.63879
-3.4983
-3.35346
-3.21278
-3.08147
-2.96121
-2.85462
-2.76052
-2.67666
-2.60318
-2.5393
-2.48507
-2.44258
-2.41114
-2.38735
-2.36818
-2.35248
-2.33924
-2.32772
-2.3178
-2.30904
-2.3009
-2.29305
-2.2847
-2.27494
-2.26368
-2.2518
-2.2399
-2.22835
-2.2177
-2.20825
-2.20025
-2.19428
-2.1904
-2.18864
-26.2241
-26.2142
-26.1709
-26.0412
-25.7356
-25.1259
-24.0717
-22.5035
-20.5472
-18.5079
-16.5435
-14.7097
-13.0776
-11.6281
-10.3203
-9.1678
-8.15191
-7.26887
-6.56818
-6.03642
-5.60737
-5.23202
-4.90633
-4.61972
-4.36295
-4.14473
-3.96054
-3.80192
-3.66879
-3.54751
-3.41813
-3.27621
-3.13757
-3.00892
-2.89101
-2.78846
-2.69895
-2.61866
-2.54884
-2.48813
-2.43635
-2.39784
-2.37193
-2.35361
-2.33891
-2.32714
-2.31733
-2.30861
-2.3013
-2.29495
-2.28889
-2.28306
-2.2764
-2.26755
-2.2564
-2.24442
-2.23231
-2.22039
-2.20941
-2.19962
-2.19119
-2.185
-2.1811
-2.17943
-26.6714
-26.6897
-26.7023
-26.6521
-26.4364
-25.8939
-24.8264
-23.1068
-20.8894
-18.6368
-16.5191
-14.5573
-12.8586
-11.3733
-10.0247
-8.85201
-7.81819
-6.90794
-6.21771
-5.73028
-5.34471
-4.99469
-4.69318
-4.42751
-4.18343
-3.98206
-3.81648
-3.67382
-3.56157
-3.46177
-3.34389
-3.20167
-3.06365
-2.93739
-2.82083
-2.72259
-2.63822
-2.5611
-2.49505
-2.4374
-2.38713
-2.35255
-2.33291
-2.32061
-2.31031
-2.3025
-2.29613
-2.29004
-2.28532
-2.28139
-2.27735
-2.27363
-2.26887
-2.26092
-2.24957
-2.23737
-2.22501
-2.21258
-2.20124
-2.19107
-2.18207
-2.17563
-2.17179
-2.17025
-27.0958
-27.1457
-27.2219
-27.2665
-27.1655
-26.723
-25.6655
-23.7733
-21.2232
-18.736
-16.4677
-14.3641
-12.6107
-11.1048
-9.71015
-8.52491
-7.47662
-6.52313
-5.84601
-5.41907
-5.087
-4.75896
-4.48284
-4.23974
-4.00405
-3.82003
-3.67453
-3.54584
-3.45678
-3.383
-3.27724
-3.12962
-2.99083
-2.86721
-2.75041
-2.65708
-2.57881
-2.50405
-2.44207
-2.38753
-2.33722
-2.30653
-2.29425
-2.28866
-2.28249
-2.27865
-2.2758
-2.27201
-2.26988
-2.26843
-2.26625
-2.2648
-2.26222
-2.25516
-2.24319
-2.23064
-2.21802
-2.20489
-2.1932
-2.18265
-2.1729
-2.16617
-2.16248
-2.16117
-27.4936
-27.5774
-27.7242
-27.8781
-27.9193
-27.6173
-26.6052
-24.5188
-21.5326
-18.795
-16.3912
-14.1218
-12.3328
-10.8296
-9.37488
-8.18942
-7.13414
-6.10966
-5.44936
-5.10571
-4.83975
-4.52496
-4.27622
-4.05889
-3.824
-3.65872
-3.53598
-3.41693
-3.35406
-3.31289
-3.22036
-3.05928
-2.9187
-2.79895
-2.6792
-2.59194
-2.52138
-2.44737
-2.39016
-2.33912
-2.28625
-2.25949
-2.25617
-2.25818
-2.25549
-2.25568
-2.25649
-2.2545
-2.25499
-2.25614
-2.2555
-2.25653
-2.2566
-2.25046
-2.23719
-2.2242
-2.21141
-2.1973
-2.18532
-2.17446
-2.16363
-2.15659
-2.15322
-2.15225
-27.8614
-27.9809
-28.2035
-28.4802
-28.6921
-28.5796
-27.6656
-25.3669
-21.7916
-18.8013
-16.2976
-13.8179
-12.0239
-10.5587
-9.0138
-7.84887
-6.80169
-5.6595
-5.0224
-4.79422
-4.61048
-4.29126
-4.07389
-3.88849
-3.64137
-3.49803
-3.40286
-3.28523
-3.25258
-3.25354
-3.17623
-2.98897
-2.84659
-2.73364
-2.60622
-2.52712
-2.46696
-2.39065
-2.33959
-2.29308
-2.23359
-2.21097
-2.21894
-2.22973
-2.22924
-2.23362
-2.23845
-2.23737
-2.24065
-2.24466
-2.24498
-2.24876
-2.25215
-2.24704
-2.23141
-2.21802
-2.20529
-2.18972
-2.17761
-2.16662
-2.15422
-2.14686
-2.14403
-2.14355
-28.1967
-28.3527
-28.6545
-29.0651
-29.4761
-29.6106
-28.8701
-26.3531
-21.9597
-18.7405
-16.2042
-13.4332
-11.6831
-10.3102
-8.61637
-7.50687
-6.49643
-5.15967
-4.55785
-4.49007
-4.40967
-4.05385
-3.87599
-3.73392
-3.45251
-3.33774
-3.27857
-3.14764
-3.15095
-3.20752
-3.14911
-2.91562
-2.77362
-2.67313
-2.52982
-2.46254
-2.41711
-2.33296
-2.2906
-2.25081
-2.17818
-2.16038
-2.18294
-2.20407
-2.20348
-2.21247
-2.22201
-2.22042
-2.22685
-2.23419
-2.23445
-2.2414
-2.24909
-2.24522
-2.22559
-2.21203
-2.19984
-2.18199
-2.17011
-2.1593
-2.14456
-2.13692
-2.13496
-2.13515
-28.4976
-28.6899
-29.0722
-29.6245
-30.261
-30.707
-30.2456
-27.5317
-21.9738
-18.5966
-16.1436
-12.9373
-11.3097
-10.1123
-8.16311
-7.16723
-6.24499
-4.58948
-4.04644
-4.20063
-4.25202
-3.80459
-3.68225
-3.60347
-3.25106
-3.17745
-3.16864
-2.99927
-3.0471
-3.17796
-3.14512
-2.83408
-2.69863
-2.6206
-2.44724
-2.39805
-2.37428
-2.27259
-2.24343
-2.21449
-2.11833
-2.10694
-2.14871
-2.18225
-2.17768
-2.19219
-2.2077
-2.20321
-2.21356
-2.22508
-2.22357
-2.23429
-2.24762
-2.24546
-2.21929
-2.20613
-2.19535
-2.17388
-2.16282
-2.15279
-2.13447
-2.12669
-2.12605
-2.12714
-28.7632
-28.9904
-29.4522
-30.15
-31.034
-31.8605
-31.8203
-28.9848
-21.7383
-18.3527
-16.171
-12.2822
-10.903
-10.0086
-7.62057
-6.83386
-6.08808
-3.91669
-3.47719
-3.93547
-4.1583
-3.52911
-3.49198
-3.50997
-3.02653
-3.01672
-3.08181
-2.83252
-2.9383
-3.16851
-3.17319
-2.73608
-2.62034
-2.58124
-2.35408
-2.33346
-2.34222
-2.20657
-2.19832
-2.18744
-2.0514
-2.04974
-2.11692
-2.16578
-2.15084
-2.17271
-2.19632
-2.18509
-2.20073
-2.21787
-2.21179
-2.22721
-2.24803
-2.24847
-2.2118
-2.20025
-2.19231
-2.16494
-2.15576
-2.14752
-2.12365
-2.11608
-2.11736
-2.11959
-28.9932
-29.2531
-29.7907
-30.6331
-31.7795
-33.0554
-33.6207
-30.8366
-21.1094
-17.9928
-16.3751
-11.3929
-10.4629
-10.0654
-6.93424
-6.51066
-6.08687
-3.09186
-2.83834
-3.70645
-4.15785
-3.20383
-3.30423
-3.47297
-2.76228
-2.85512
-3.03161
-2.6359
-2.82121
-3.18318
-3.24635
-2.60879
-2.53743
-2.56324
-2.2434
-2.26862
-2.32667
-2.13015
-2.15547
-2.17466
-1.97335
-1.98781
-2.08845
-2.15671
-2.12135
-2.15391
-2.1891
-2.16496
-2.18833
-2.21342
-2.1983
-2.21989
-2.25057
-2.25525
-2.20204
-2.19425
-2.19144
-2.1545
-2.14893
-2.14412
-2.11162
-2.10501
-2.10897
-2.11261
-29.1881
-29.4776
-30.085
-31.0659
-32.4804
-34.2674
-35.6653
-33.2726
-19.8755
-17.5042
-16.8913
-10.1544
-9.99064
-10.3809
-6.01888
-6.20151
-6.3315
-2.04047
-2.11938
-3.52734
-4.29198
-2.792
-3.11812
-3.52169
-2.43271
-2.69251
-3.03829
-2.39225
-2.69228
-3.22597
-3.38344
-2.43293
-2.44879
-2.57906
-2.10453
-2.20344
-2.33614
-2.03585
-2.11508
-2.18354
-1.87804
-1.92029
-2.06433
-2.15798
-2.08667
-2.13569
-2.18787
-2.14118
-2.1763
-2.21301
-2.18189
-2.21202
-2.25552
-2.26729
-2.18837
-2.18804
-2.19388
-2.14152
-2.14234
-2.14351
-2.09765
-2.09339
-2.10097
-2.10626
-29.3488
-29.6642
-30.3336
-31.4416
-33.1183
-35.4616
-37.9553
-36.5661
-17.7306
-16.8817
-17.9202
-8.39449
-9.48998
-11.0982
-4.74586
-5.91042
-6.95219
-0.652271
-1.31461
-3.4125
-4.61859
-2.23845
-2.93329
-3.69887
-1.99952
-2.5294
-3.13143
-2.07641
-2.54841
-3.30001
-3.6116
-2.18021
-2.35391
-2.64707
-1.92153
-2.13811
-2.38307
-1.91246
-2.07739
-2.22473
-1.75644
-1.84672
-2.04567
-2.17362
-2.04298
-2.11797
-2.19533
-2.11127
-2.16465
-2.21855
-2.16083
-2.20331
-2.26303
-2.28673
-2.16841
-2.18154
-2.2013
-2.12445
-2.13599
-2.14702
-2.08065
-2.08123
-2.0935
-2.10064
-29.4771
-29.814
-30.5359
-31.7551
-33.6749
-36.5926
-40.4597
-41.1132
-14.2392
-16.1338
-19.7492
-5.86098
-8.96956
-12.4213
-2.92678
-5.64184
-8.13344
1.23295
-0.428877
-3.37439
-5.21825
-1.46302
-2.75076
-4.06562
-1.4068
-2.3675
-3.35311
-1.65205
-2.38824
-3.40631
-3.96942
-1.81001
-2.25348
-2.79361
-1.67107
-2.07329
-2.4852
-1.74356
-2.04272
-2.31337
-1.59537
-1.76754
-2.03349
-2.20926
-1.9847
-2.10079
-2.21536
-2.07163
-2.15342
-2.23273
-2.13263
-2.19356
-2.27309
-2.31666
-2.13877
-2.17476
-2.21609
-2.10101
-2.12993
-2.15655
-2.059
-2.06861
-2.0867
-2.09582
-29.5749
-29.9287
-30.6926
-32.0032
-34.1338
-37.6054
-43.0943
-47.4784
-8.79298
-15.2906
-22.7796
-2.19323
-8.44607
-14.6346
-0.293109
-5.40132
-10.1315
3.84371
0.513696
-3.41916
-6.202
-0.352214
-2.57406
-4.70735
-0.574895
-2.21069
-3.76182
-1.06767
-2.21412
-3.54162
-4.51106
-1.26534
-2.15016
-3.05543
-1.31983
-2.01048
-2.66729
-1.50578
-2.01158
-2.47049
-1.37607
-1.68478
-2.02842
-2.27262
-1.90397
-2.0844
-2.25336
-2.01716
-2.14279
-2.25938
-2.0938
-2.18279
-2.28532
-2.36145
-2.09471
-2.16782
-2.24163
-2.068
-2.12424
-2.1747
-2.03038
-2.05586
-2.08077
-2.09185
-29.6444
-30.0107
-30.8056
-32.1851
-34.4825
-38.4392
-45.693
-56.4515
-0.557087
-14.4156
-27.5582
3.11245
-7.94894
-18.1267
3.52842
-5.19658
-13.2956
7.49995
1.45744
-3.53988
-7.72139
1.25076
-2.41079
-5.74083
0.6071
-2.06618
-4.43708
-0.251452
-2.03505
-3.69545
-5.3115
-0.467683
-2.04973
-3.4827
-0.821342
-1.95254
-2.9632
-1.16664
-1.98488
-2.72477
-1.07228
-1.60305
-2.03023
-2.37423
-1.78993
-2.06942
-2.31679
-1.94075
-2.13316
-2.30371
-2.03955
-2.1715
-2.29876
-2.42721
-2.02974
-2.16106
-2.28257
-2.02097
-2.11912
-2.20507
-1.99157
-2.04365
-2.07594
-2.08879
-29.6883
-30.0626
-30.8776
-32.3024
-34.7136
-39.0344
-47.9697
-69.1177
11.5946
-13.6199
-34.8133
10.744
-7.52673
-23.4174
9.04477
-5.03909
-18.0927
12.6413
2.29839
-3.70661
-9.98085
3.55791
-2.2747
-7.32239
2.2903
-1.94629
-5.48473
0.894964
-1.8708
-3.8459
-6.47294
0.688984
-1.96257
-4.14222
-0.112184
-1.9044
-3.41822
-0.682043
-1.96409
-3.11455
-0.647915
-1.53101
-2.03712
-2.52828
-1.62789
-2.05699
-2.41562
-1.83281
-2.12525
-2.3727
-1.96336
-2.16091
-2.31154
-2.52229
-1.93516
-2.15515
-2.34517
-1.95392
-2.11492
-2.25243
-1.93812
-2.03314
-2.07244
-2.08668
-29.7091
-30.0873
-30.9119
-32.3588
-34.8268
-39.3441
-49.47
-86.941
29.1549
-13.0811
-45.4942
21.6204
-7.25529
-31.1883
16.9296
-4.9462
-25.1356
19.8608
2.86249
-3.85287
-13.2528
6.85021
-2.18831
-9.65702
4.67628
-1.87057
-7.04288
2.5039
-1.75741
-3.95416
-8.1326
2.34522
-1.90548
-5.12124
0.892279
-1.87397
-4.09179
0.0065285
-1.95168
-3.69025
-0.0544242
-1.48312
-2.04479
-2.75375
-1.39852
-2.04915
-2.56303
-1.68064
-2.12029
-2.47562
-1.85657
-2.15349
-2.32057
-2.65806
-1.79956
-2.15126
-2.43772
-1.85894
-2.11231
-2.32318
-1.86413
-2.02632
-2.07057
-2.08562
)
;

boundaryField
{
    left
    {
        type            calculated;
        value           nonuniform List<scalar> 
32
(
-20.2596
-20.3371
-20.4844
-20.6933
-20.9564
-21.2674
-21.6202
-22.0091
-22.4286
-22.8732
-23.3374
-23.8158
-24.3027
-24.7925
-25.2796
-25.7585
-26.2241
-26.6714
-27.0958
-27.4936
-27.8614
-28.1967
-28.4976
-28.7632
-28.9932
-29.1881
-29.3488
-29.4771
-29.5749
-29.6444
-29.6883
-29.7091
)
;
    }
    right
    {
        type            calculated;
        value           nonuniform List<scalar> 
32
(
-2.29069
-2.28918
-2.28634
-2.28233
-2.27733
-2.27148
-2.26492
-2.25775
-2.25009
-2.24202
-2.23361
-2.22493
-2.21604
-2.207
-2.19785
-2.18864
-2.17943
-2.17025
-2.16117
-2.15225
-2.14355
-2.13515
-2.12714
-2.11959
-2.11261
-2.10626
-2.10064
-2.09582
-2.09185
-2.08879
-2.08668
-2.08562
)
;
    }
    interface
    {
        type            calculated;
        value           nonuniform List<scalar> 
64
(
-29.7141
-30.0932
-30.9201
-32.3724
-34.8543
-39.4229
-49.957
-97.3515
39.4993
-12.903
-51.8249
28.0008
-7.16873
-35.7901
21.5598
-4.91852
-29.3052
24.0749
3.04843
-3.9098
-15.1806
8.78252
-2.16099
-11.0416
6.07365
-1.84674
-7.96905
3.44292
-1.71915
-3.99163
-9.1066
3.31819
-1.88704
-5.70293
1.48038
-1.86439
-4.49162
0.410116
-1.94795
-4.03172
0.291542
-1.46744
-2.0481
-2.88706
-1.26426
-2.04669
-2.65076
-1.59169
-2.11875
-2.53688
-1.79431
-2.15096
-2.32367
-2.73776
-1.71989
-2.15002
-2.49267
-1.80336
-2.11151
-2.36531
-1.82116
-2.02413
-2.07009
-2.08536
)
;
    }
    bottom
    {
        type            calculated;
        value           nonuniform List<scalar> 
64
(
-20.2394
-20.1438
-19.9536
-19.6712
-19.3
-18.8452
-18.3135
-17.7133
-17.0545
-16.3481
-15.6061
-14.8404
-14.0629
-13.2847
-12.5156
-11.7645
-11.0384
-10.3429
-9.68231
-9.0593
-8.47542
-7.93116
-7.42614
-6.95929
-6.52906
-6.13356
-5.77068
-5.4382
-5.1339
-4.85561
-4.60126
-4.36892
-4.15682
-3.96335
-3.78706
-3.62664
-3.48089
-3.3487
-3.22907
-3.12103
-3.02369
-2.93619
-2.8577
-2.78743
-2.72464
-2.66861
-2.61866
-2.57417
-2.53457
-2.49932
-2.46795
-2.44005
-2.41526
-2.39328
-2.37383
-2.35673
-2.3418
-2.32893
-2.31801
-2.30898
-2.3018
-2.29643
-2.29287
-2.29109
)
;
    }
    defaultFaces
    {
        type            empty;
    }
}


// ************************************************************************* //
