/*--------------------------------*- C++ -*----------------------------------*\
| =========                 |                                                 |
| \\      /  F ield         | OpenFOAM: The Open Source CFD Toolbox           |
|  \\    /   O peration     | Version:  5.x                                   |
|   \\  /    A nd           | Web:      www.OpenFOAM.org                      |
|    \\/     M anipulation  |                                                 |
\*---------------------------------------------------------------------------*/
FoamFile
{
    version     2.0;
    format      ascii;
    class       volScalarField;
    location    "5.8";
    object      gradTx;
}
// * * * * * * * * * * * * * * * * * * * * * * * * * * * * * * * * * * * * * //

dimensions      [0 -1 0 1 0 0 0];

internalField   nonuniform List<scalar> 
2048
(
0.021982
0.065699
0.108654
0.15027
0.189892
0.226794
0.260219
0.289442
0.313845
0.33298
0.346619
0.354769
0.357661
0.355714
0.349484
0.339621
0.326813
0.311754
0.295102
0.27746
0.259355
0.241227
0.22343
0.206234
0.189832
0.17435
0.159861
0.146393
0.133936
0.122453
0.11189
0.102176
0.0932382
0.0850046
0.0774078
0.0703888
0.0638974
0.0578925
0.0523408
0.0472157
0.0424954
0.0381617
0.0341983
0.030589
0.027317
0.0243641
0.02171
0.0193329
0.0172094
0.015315
0.0136245
0.0121126
0.0107541
0.00952478
0.00840166
0.00736366
0.00639199
0.00547042
0.00458545
0.00372623
0.00288437
0.00205365
0.00122968
0.000409466
0.0651888
0.194854
0.322317
0.445888
0.56362
0.673338
0.772752
0.859657
0.932167
0.988923
1.02924
1.05314
1.06135
1.05513
1.03617
1.00644
0.968011
0.922946
0.873221
0.82063
0.76674
0.712858
0.660024
0.609028
0.560432
0.514603
0.471748
0.43194
0.395144
0.361246
0.330073
0.301417
0.275055
0.25077
0.228361
0.207652
0.188496
0.170771
0.154381
0.139247
0.125308
0.11251
0.100807
0.0901503
0.0804926
0.0717795
0.0639514
0.0569433
0.0506859
0.0451064
0.0401299
0.0356809
0.031685
0.0280698
0.024767
0.0217139
0.0188548
0.0161416
0.0135344
0.0110012
0.00851754
0.00606535
0.00363196
0.00120935
0.107044
0.320028
0.529579
0.732993
0.927068
1.10815
1.27233
1.41582
1.53537
1.62862
1.69441
1.73285
1.74517
1.73358
1.70099
1.65069
1.58618
1.51093
1.42822
1.34103
1.25193
1.16307
1.07614
0.992393
0.912733
0.83773
0.767694
0.702722
0.642738
0.587536
0.536813
0.490211
0.447352
0.407869
0.371428
0.337739
0.306564
0.277705
0.251009
0.226352
0.203636
0.18278
0.16371
0.146352
0.130628
0.116452
0.103725
0.092341
0.0821855
0.0731384
0.0650766
0.0578755
0.0514121
0.0455669
0.0402272
0.0352895
0.0306618
0.0262655
0.0220354
0.01792
0.01388
0.00988697
0.00592108
0.00197145
0.147828
0.442104
0.732024
1.014
1.28361
1.53563
1.76438
1.96423
2.13037
2.25933
2.34943
2.40089
2.41562
2.3969
2.34897
2.27659
2.18476
2.07837
1.96206
1.83999
1.71575
1.59227
1.47185
1.35617
1.24641
1.14329
1.0472
0.958214
0.876201
0.800835
0.731665
0.668163
0.609782
0.555996
0.506336
0.460402
0.417867
0.378469
0.342002
0.308306
0.277254
0.248743
0.222678
0.198965
0.177502
0.158168
0.14083
0.125341
0.11154
0.0992626
0.0883363
0.0785886
0.0698482
0.0619486
0.0547327
0.0480562
0.0417918
0.0358309
0.0300845
0.024483
0.0189744
0.0135219
0.00809982
0.00269684
0.187701
0.561595
0.930641
1.29054
1.63568
1.95915
2.25317
2.50999
2.72287
2.88703
3.00025
3.06295
3.07791
3.0497
2.98408
2.88744
2.76636
2.62728
2.4762
2.31851
2.1588
2.00076
1.84725
1.7003
1.56129
1.43105
1.30998
1.19813
1.09525
1.00089
0.914413
0.835097
0.762204
0.695038
0.63299
0.575553
0.522321
0.472974
0.427265
0.385004
0.346047
0.310274
0.27758
0.247856
0.220978
0.196797
0.175143
0.155828
0.138648
0.123389
0.109833
0.097758
0.0869453
0.0771807
0.0682617
0.0600032
0.0522422
0.0448413
0.0376889
0.0306991
0.0238092
0.0169771
0.0101729
0.00338716
0.226698
0.678665
1.12586
1.56353
1.9849
2.38117
2.74212
3.0573
3.31763
3.51674
3.65182
3.72368
3.73621
3.69559
3.60935
3.4857
3.33294
3.15911
2.97168
2.77728
2.5815
2.38879
2.20245
2.0248
1.85734
1.70093
1.55595
1.42236
1.2998
1.18764
1.08503
0.991021
0.904652
0.825043
0.751442
0.68324
0.619962
0.561244
0.506806
0.45644
0.40999
0.367334
0.328364
0.292964
0.260993
0.232274
0.206603
0.183747
0.163458
0.145475
0.129531
0.115358
0.102688
0.0912565
0.080816
0.0711388
0.0620264
0.0533127
0.0448653
0.036584
0.028398
0.0202628
0.0121465
0.00404453
0.264741
0.793138
1.31759
1.8332
2.33211
2.80342
3.23388
3.60969
3.91877
4.15279
4.30835
4.38689
4.39384
4.33736
4.22707
4.0732
3.8859
3.67489
3.44918
3.21672
2.9841
2.75647
2.53752
2.32972
2.1346
1.95298
1.78514
1.63096
1.48992
1.36118
1.24364
1.13609
1.0373
0.946189
0.861861
0.783616
0.710926
0.643392
0.580718
0.522683
0.469132
0.41995
0.37504
0.334287
0.297537
0.264589
0.235198
0.209088
0.185962
0.165514
0.14743
0.131393
0.117085
0.104192
0.0924164
0.0814878
0.0711706
0.0612713
0.0516383
0.0421593
0.0327581
0.0233918
0.0140284
0.00467143
0.30164
0.904514
1.50522
2.09914
2.6775
3.22696
3.73057
4.1702
4.52991
4.79898
4.97341
5.05572
5.0534
4.97708
4.83887
4.65118
4.42614
4.17524
3.90908
3.63701
3.36669
3.10389
2.85255
2.61518
2.39321
2.18733
1.99771
1.82409
1.66578
1.52171
1.3905
1.27058
1.16044
1.05876
0.964513
0.87692
0.79542
0.719601
0.649155
0.583863
0.523576
0.468201
0.417665
0.371866
0.330644
0.29377
0.260955
0.231876
0.206187
0.183534
0.163556
0.14589
0.130166
0.116019
0.103099
0.0910872
0.0797115
0.0687516
0.0580385
0.0474509
0.0369101
0.0263784
0.0158269
0.00527052
0.337099
1.01198
1.68764
2.36034
3.02057
3.65227
4.23384
4.74155
5.15443
5.45875
5.65014
5.73273
5.71684
5.61621
5.44579
5.22041
4.95419
4.66045
4.35148
4.03816
3.72924
3.43104
3.14763
2.88134
2.63339
2.40425
2.19392
2.002
1.82765
1.66954
1.52594
1.39487
1.27445
1.16313
1.05974
0.963452
0.873711
0.790103
0.712324
0.640156
0.573468
0.512203
0.456331
0.405779
0.360382
0.319878
0.283933
0.252167
0.224183
0.199581
0.177953
0.158892
0.141976
0.126786
0.112911
0.0999842
0.0876937
0.0757939
0.0641011
0.0524876
0.0408759
0.029238
0.0175507
0.00584451
0.370726
1.11443
1.86328
2.61516
3.36019
4.07924
4.74496
5.32627
5.79553
6.13536
6.34128
6.41998
6.38554
6.25562
6.04841
5.78126
5.4703
5.13061
4.7763
4.41998
4.0716
3.73792
3.42288
3.12846
2.85548
2.60408
2.37411
2.16504
1.97587
1.80505
1.65039
1.50942
1.37981
1.25973
1.14792
1.04356
0.946101
0.855168
0.770463
0.691772
0.618987
0.552101
0.491155
0.436123
0.38684
0.343002
0.304215
0.27004
0.240025
0.213721
0.190682
0.170455
0.152572
0.136548
0.12191
0.108233
0.0951675
0.0824427
0.0698638
0.0573004
0.0446788
0.0319863
0.0192085
0.00639588
0.402043
1.21051
2.03012
2.86137
3.69456
4.50727
5.26496
5.92686
6.45647
6.8319
7.04925
7.119
7.06032
6.89565
6.64685
6.33378
5.97446
5.58561
5.1833
4.78218
4.39356
4.02448
3.67847
3.35686
3.05986
2.78726
2.5387
2.31359
2.11084
1.92865
1.76435
1.61476
1.47704
1.34906
1.22951
1.11761
1.01292
0.915088
0.823837
0.73895
0.660335
0.588059
0.52227
0.463016
0.410126
0.363245
0.321904
0.285593
0.2538
0.226034
0.201813
0.180645
0.162014
0.145369
0.130158
0.115895
0.102187
0.0887452
0.075366
0.0619206
0.048342
0.0346384
0.0208079
0.00692676
0.4305
1.29861
2.18574
3.09615
4.02123
4.93518
5.79462
6.54592
7.14064
7.55144
7.77617
7.8309
7.74144
7.53615
7.24086
6.8778
6.46657
6.02527
5.5721
5.12431
4.69483
4.29072
3.91463
3.56695
3.24707
2.9543
2.68817
2.44808
2.23296
2.04081
1.86834
1.7115
1.56672
1.43164
1.30494
1.18599
1.07449
0.970167
0.872729
0.781946
0.697732
0.620252
0.549816
0.486579
0.430363
0.380729
0.337119
0.298936
0.265609
0.236609
0.211422
0.18953
0.170371
0.153317
0.137724
0.123031
0.108809
0.0947492
0.0806472
0.0663797
0.0518884
0.0372083
0.0223556
0.00743862
0.455503
1.37699
2.32735
3.31613
4.33706
5.36125
6.33456
7.18633
7.85179
8.29706
8.52389
8.55626
8.42859
8.17649
7.82985
7.41292
6.94645
6.44939
5.94224
5.44582
4.9751
4.53666
4.13169
3.75927
3.41771
3.1058
2.82306
2.56897
2.34264
2.14199
1.96297
1.80028
1.64948
1.50802
1.37468
1.24908
1.13116
1.02071
0.917426
0.821031
0.731414
0.648859
0.573931
0.506942
0.447679
0.395586
0.349988
0.310193
0.275563
0.24554
0.219592
0.19718
0.177709
0.160464
0.144679
0.129709
0.115089
0.100502
0.0857459
0.0707086
0.0553397
0.0397084
0.0238563
0.00793212
0.476434
1.44378
2.45191
3.5174
4.63817
5.78306
6.88527
7.85142
8.5941
9.07185
9.2939
9.29517
9.12088
8.81556
8.41296
7.93867
7.414
6.85782
6.29317
5.746
5.23398
4.76238
4.33006
3.93445
3.57252
3.24244
2.94395
2.67674
2.44026
2.23263
2.04885
1.88181
1.72599
1.57877
1.43919
1.30724
1.18323
1.06702
0.958223
0.856493
0.761627
0.67406
0.594748
0.524229
0.46221
0.407955
0.360654
0.319495
0.283778
0.252928
0.226402
0.203663
0.184095
0.166883
0.151099
0.135994
0.121084
0.10605
0.0906984
0.0749368
0.0587171
0.0421488
0.025312
0.00840672
0.492691
1.49711
2.55619
3.69557
4.91987
6.19746
7.44709
8.54521
9.37246
9.87889
10.0873
10.0472
9.81678
9.45184
8.98912
8.45445
7.86927
7.25058
6.62424
6.02398
5.47109
4.96808
4.51026
4.09327
3.71232
3.36494
3.05146
2.77186
2.52615
2.31315
2.12664
1.95689
1.79693
1.64445
1.49892
1.36081
1.23102
1.1094
0.995411
0.888632
0.788632
0.696025
0.612381
0.538562
0.474098
0.417985
0.369263
0.326983
0.290373
0.258873
0.231933
0.209039
0.189592
0.17265
0.157061
0.141952
0.126847
0.111435
0.095538
0.0790927
0.0620409
0.0445372
0.0267214
0.00886043
0.503713
1.53519
2.63693
3.84585
5.17667
6.60034
8.02018
9.27271
10.1927
10.7211
10.9048
10.8113
10.5141
10.0834
9.5571
8.95962
8.31255
7.62797
6.93466
6.2786
5.68605
5.15411
4.67294
4.23663
3.83807
3.47407
3.14627
2.85481
2.60057
2.38389
2.19707
2.02638
1.86301
1.70563
1.55427
1.41007
1.27478
1.14812
1.02927
0.917763
0.81271
0.71491
0.62692
0.550056
0.48349
0.425828
0.375972
0.332801
0.29547
0.263477
0.236265
0.213364
0.194254
0.177844
0.162647
0.147648
0.13243
0.116698
0.100294
0.0832037
0.0653315
0.0468777
0.0280788
0.00928936
0.509029
1.55642
2.69096
3.96321
5.40216
6.98644
8.60438
10.0403
11.0616
11.601
11.7466
11.586
11.2097
10.7081
10.1156
9.45343
8.74457
7.99076
7.22346
6.50836
5.87851
5.32102
4.8188
4.36556
3.95085
3.57061
3.22908
2.92609
2.66361
2.44508
2.26095
2.09124
1.92491
1.76283
1.60567
1.45526
1.31478
1.18345
1.06007
0.944226
0.834169
0.73085
0.638418
0.558821
0.490546
0.431639
0.380942
0.3371
0.299189
0.266845
0.239473
0.216678
0.198128
0.182545
0.167945
0.15314
0.13788
0.121874
0.104988
0.0872962
0.0686112
0.049171
0.0293729
0.00968724
0.50828
1.5595
2.7154
4.04246
5.58906
7.34899
9.19903
10.8564
11.9879
12.5204
12.6121
12.3695
11.8998
11.3234
10.6635
9.93488
9.16658
8.34035
7.48932
6.71121
6.04824
5.46972
4.9486
4.48124
4.0519
3.65527
3.30066
2.98624
2.71521
2.4968
2.31919
2.1526
1.98327
1.81657
1.65348
1.49652
1.35121
1.21568
1.08802
0.968391
0.853357
0.74394
0.646876
0.564964
0.495441
0.435572
0.384338
0.340037
0.301644
0.269082
0.241634
0.219006
0.201243
0.186845
0.17305
0.158479
0.143237
0.126996
0.109635
0.0913971
0.0719055
0.0514131
0.0305852
0.010045
0.50126
1.54353
2.70784
4.07853
5.72922
7.67939
9.80254
11.7318
12.982
13.4792
13.5001
13.1597
12.579
11.9268
11.1999
10.4024
9.58063
8.67915
7.73036
6.88438
6.19529
5.60153
5.06301
4.585
4.14261
3.72864
3.36185
3.03592
2.75505
2.53889
2.37289
2.21178
2.03861
1.8673
1.69809
1.53386
1.38428
1.24507
1.11331
0.990668
0.870693
0.754225
0.652224
0.568597
0.498375
0.437771
0.38633
0.341777
0.302935
0.270293
0.242829
0.22035
0.203613
0.190846
0.178071
0.163706
0.14854
0.132094
0.114238
0.095535
0.0752474
0.0535942
0.0316883
0.0103503
0.487932
1.50809
2.66649
4.06672
5.81375
7.96672
10.4117
12.6812
14.0572
14.4748
14.4091
13.9552
13.2403
12.5162
11.7246
10.8536
9.98974
9.01095
7.94388
7.02403
6.32015
5.71845
5.16242
4.67834
4.22466
3.791
3.41361
3.07598
2.78244
2.57085
2.42343
2.27038
2.09123
1.91548
1.73994
1.56716
1.4142
1.27196
1.13599
1.01153
0.886691
0.761669
0.654299
0.569855
0.499591
0.438357
0.387096
0.342495
0.303143
0.270594
0.243146
0.220684
0.205221
0.194672
0.183134
0.168834
0.153823
0.137201
0.11878
0.099742
0.0786813
0.0556964
0.0326442
0.0105869
0.468443
1.45331
2.5904
4.00297
5.83321
8.19733
11.0208
13.7241
15.2303
15.5
15.3371
14.7553
13.874
13.0901
12.2382
11.2839
10.3984
9.34159
8.1258
7.12493
6.4241
5.82337
5.2466
4.763
4.30009
3.84213
3.4571
3.10763
2.79626
2.59171
2.47263
2.33036
2.14103
1.96152
1.77954
1.59601
1.44119
1.29671
1.15593
1.03154
0.902018
0.76612
0.652818
0.568914
0.499388
0.437409
0.38682
0.342387
0.302312
0.27011
0.242694
0.219942
0.206014
0.198478
0.188393
0.173844
0.159118
0.142353
0.123218
0.104057
0.0822699
0.057691
0.0334021
0.010735
0.443122
1.37988
2.47957
3.88424
5.77802
8.35433
11.6199
14.887
16.5231
16.5401
16.2824
15.5619
14.4666
13.6483
12.7436
11.6859
10.8128
9.67976
8.27005
7.17993
6.50966
5.92038
5.31422
4.8411
4.37155
3.88095
3.49377
3.13264
2.7947
2.59984
2.52288
2.39423
2.18731
2.00589
1.81762
1.61964
1.46557
1.31988
1.17274
1.05139
0.917557
0.767252
0.647337
0.566026
0.498151
0.434928
0.385703
0.34168
0.300429
0.268983
0.241616
0.218012
0.205889
0.202468
0.194037
0.178658
0.164463
0.147605
0.127469
0.108533
0.0861025
0.0595322
0.0338964
0.010771
0.412468
1.28907
2.33503
3.70885
5.63896
8.41732
12.1926
16.2052
17.964
17.5695
17.2449
16.3805
14.9982
14.1931
13.2462
12.047
11.2419
10.0381
8.36758
7.17945
6.58125
6.01529
5.36207
4.91534
4.44255
3.905
3.52556
3.15361
2.77513
2.59271
2.57748
2.4652
2.22833
2.0492
1.85526
1.63668
1.48782
1.34222
1.18556
1.07194
0.9345
0.764493
0.637214
0.561566
0.496378
0.430784
0.383977
0.340654
0.297386
0.267387
0.240109
0.214712
0.204667
0.206916
0.200312
0.183109
0.169913
0.153038
0.131387
0.113238
0.0903069
0.0611498
0.0340457
0.0106685
0.377124
1.18265
2.15892
3.47679
5.40791
8.36228
12.7128
17.7264
19.5909
18.5459
18.2277
17.2233
15.4399
14.7304
13.756
12.3468
11.6984
10.4348
8.40508
7.11078
6.64598
6.11614
5.38395
4.98935
4.51792
3.90972
3.55509
3.17442
2.73375
2.56657
2.64092
2.54748
2.26089
2.09232
1.89411
1.64492
1.50873
1.36486
1.19284
1.09436
0.954467
0.756915
0.621565
0.55609
0.49473
0.424649
0.381922
0.339665
0.292943
0.265545
0.238451
0.20978
0.202077
0.212191
0.207538
0.186902
0.175549
0.158782
0.134733
0.118274
0.0950635
0.0624362
0.0337525
0.0103998
0.33785
1.06285
1.95442
3.19002
5.07879
8.16202
13.1401
19.514
21.4543
19.4026
19.2401
18.1115
15.7487
15.2722
14.2894
12.553
12.2
10.8951
8.36319
6.95741
6.71476
6.23398
5.36918
5.06826
4.60447
3.88743
3.58608
3.20067
2.66527
2.51603
2.71932
2.64659
2.27955
2.13671
1.93664
1.64086
1.52955
1.38949
1.19203
1.12017
0.979657
0.743092
0.599213
0.550418
0.494077
0.415891
0.379907
0.339191
0.28665
0.263749
0.237033
0.202844
0.197717
0.218795
0.216137
0.189545
0.181513
0.165041
0.137135
0.123786
0.100624
0.0632291
0.0329045
0.00993798
0.295473
0.932175
1.72562
2.85262
4.64858
7.78732
13.4138
21.6521
23.6222
20.0392
20.3016
19.0803
15.8616
15.8392
14.8725
12.6164
12.7717
11.4539
8.21425
6.69829
6.80356
6.3838
5.30054
5.15947
4.71171
3.82592
3.62386
3.24027
2.56245
2.43362
2.82098
2.76983
2.27571
2.18469
1.98657
1.61914
1.55223
1.41859
1.17912
1.15149
1.01303
0.720913
0.568645
0.545723
0.495563
0.403434
0.378437
0.339881
0.277766
0.262399
0.236399
0.193401
0.191012
0.227405
0.226674
0.190277
0.188033
0.172128
0.138031
0.129989
0.107333
0.0632871
0.0313795
0.00926029
0.250855
0.793364
1.47735
2.47083
4.11848
7.20905
13.4446
24.2509
26.1862
20.308
21.4479
20.1832
15.687
16.465
15.544
12.4638
13.4487
12.1582
7.91942
6.30717
6.93489
6.58574
5.15159
5.27381
4.853
3.70665
3.67603
3.30416
2.4156
2.30917
2.95698
2.92684
2.23641
2.24004
2.04929
1.5718
1.57982
1.45577
1.14804
1.19125
1.05853
0.68734
0.527978
0.543641
0.500695
0.385587
0.378228
0.342623
0.265137
0.262046
0.237296
0.180779
0.181172
0.238919
0.239903
0.187956
0.195477
0.180509
0.136591
0.137197
0.115654
0.0622568
0.0290537
0.00835189
0.204847
0.649185
1.21492
2.05282
3.49492
6.4018
13.1046
27.4532
29.2699
19.9977
22.7385
21.4992
15.0937
17.2007
16.3607
11.9893
14.28
13.0701
7.42514
5.75206
7.13946
6.86656
4.88333
5.42706
5.04676
3.5024
3.75353
3.40702
2.21194
2.12919
3.14184
3.13037
2.1427
2.3087
2.13244
1.48727
1.61689
1.50617
1.08994
1.24349
1.12132
0.63811
0.474939
0.546388
0.511437
0.35981
0.380311
0.348631
0.247047
0.263457
0.240722
0.164107
0.167125
0.254517
0.256832
0.180928
0.204415
0.19086
0.131619
0.145866
0.1262
0.0596304
0.0258169
0.00721015
0.158254
0.502336
0.943873
1.60842
2.79033
5.34921
12.2141
31.442
33.0384
18.8127
24.2669
23.1396
13.8969
18.1221
17.4028
11.0429
15.3338
14.27
6.65882
4.99496
7.45783
7.26156
4.43998
5.64192
5.31812
3.17433
3.87182
3.56813
1.93495
1.8761
3.39433
3.39718
1.96781
2.39967
2.24663
1.34917
1.67011
1.57696
0.992266
1.31383
1.20806
0.567371
0.406875
0.55688
0.530334
0.322433
0.38616
0.359543
0.221024
0.267699
0.247982
0.142276
0.147453
0.275721
0.278802
0.166857
0.215701
0.204133
0.121437
0.15665
0.139764
0.0546927
0.0215939
0.00584876
0.111807
0.35532
0.66961
1.14847
2.02347
4.05154
10.5267
36.4484
37.7119
16.3491
26.1734
25.2569
11.842
19.3376
18.7807
9.41787
16.7035
15.86
5.52394
3.99198
7.94206
7.81678
3.744
5.95055
5.70066
2.66851
4.05263
3.81207
1.56364
1.52745
3.73824
3.74916
1.67472
2.5262
2.40615
1.13473
1.749
1.67789
0.837591
1.40999
1.32717
0.467261
0.320795
0.578849
0.560664
0.268328
0.39786
0.377541
0.183619
0.276241
0.260736
0.113903
0.12032
0.30446
0.307588
0.142531
0.230578
0.22163
0.103733
0.170473
0.157355
0.0464561
0.0163763
0.00430085
0.0661415
0.210355
0.397175
0.684143
1.21886
2.5357
7.71093
42.7603
43.5798
12.0652
28.6606
28.0543
8.58416
20.9977
20.6427
6.83466
18.5159
17.9674
3.8944
2.69394
8.65707
8.59176
2.69025
6.39755
6.23848
1.9118
4.32598
4.16947
1.0718
1.05515
4.20311
4.21467
1.21357
2.70727
2.62988
0.813089
1.86682
1.82195
0.602345
1.54245
1.4891
0.327423
0.213472
0.616935
0.606616
0.190508
0.418311
0.405484
0.130135
0.291093
0.281051
0.0772951
0.0833853
0.343131
0.34551
0.10362
0.2508
0.245093
0.0753922
0.18862
0.180228
0.0335846
0.0102638
0.00262
0.0217881
0.0693175
0.130997
0.226114
0.40522
0.868015
3.3294
50.7312
51.019
5.24878
32.0114
31.7958
3.66633
23.307
23.1838
2.92342
20.9404
20.7472
1.6084
1.0477
9.68161
9.6628
1.13937
7.04358
6.98839
0.807093
4.73272
4.67753
0.427294
0.424587
4.82496
4.83015
0.518481
2.96925
2.94217
0.343236
2.0416
2.02613
0.255291
1.72529
1.70662
0.134469
0.0815913
0.676746
0.673498
0.079688
0.451471
0.447045
0.0543238
0.31496
0.311427
0.0304245
0.0337257
0.394659
0.395581
0.0444145
0.278782
0.276799
0.0322975
0.212843
0.209922
0.0143067
0.00351907
0.000877903
)
;

boundaryField
{
    left
    {
        type            calculated;
        value           uniform 0;
    }
    right
    {
        type            calculated;
        value           uniform 0;
    }
    interface
    {
        type            calculated;
        value           nonuniform List<scalar> 
64
(
0.0217881
0.0693175
0.130997
0.226114
0.40522
0.868015
3.3294
50.7312
51.019
5.24878
32.0114
31.7958
3.66633
23.307
23.1838
2.92342
20.9404
20.7472
1.6084
1.0477
9.68161
9.6628
1.13937
7.04358
6.98839
0.807093
4.73272
4.67753
0.427294
0.424587
4.82496
4.83015
0.518481
2.96925
2.94217
0.343236
2.0416
2.02613
0.255291
1.72529
1.70662
0.134469
0.0815913
0.676746
0.673498
0.079688
0.451471
0.447045
0.0543238
0.31496
0.311427
0.0304245
0.0337257
0.394659
0.395581
0.0444145
0.278782
0.276799
0.0322975
0.212843
0.209922
0.0143067
0.00351907
0.000877903
)
;
    }
    bottom
    {
        type            calculated;
        value           nonuniform List<scalar> 
64
(
0.021982
0.065699
0.108654
0.15027
0.189892
0.226794
0.260219
0.289442
0.313845
0.33298
0.346619
0.354769
0.357661
0.355714
0.349484
0.339621
0.326813
0.311754
0.295102
0.27746
0.259355
0.241227
0.22343
0.206234
0.189832
0.17435
0.159861
0.146393
0.133936
0.122453
0.11189
0.102176
0.0932382
0.0850046
0.0774078
0.0703888
0.0638974
0.0578925
0.0523408
0.0472157
0.0424954
0.0381617
0.0341983
0.030589
0.027317
0.0243641
0.02171
0.0193329
0.0172094
0.015315
0.0136245
0.0121126
0.0107541
0.00952478
0.00840166
0.00736366
0.00639199
0.00547042
0.00458545
0.00372623
0.00288437
0.00205365
0.00122968
0.000409466
)
;
    }
    defaultFaces
    {
        type            empty;
    }
}


// ************************************************************************* //
