/*--------------------------------*- C++ -*----------------------------------*\
| =========                 |                                                 |
| \\      /  F ield         | OpenFOAM: The Open Source CFD Toolbox           |
|  \\    /   O peration     | Version:  5.x                                   |
|   \\  /    A nd           | Web:      www.OpenFOAM.org                      |
|    \\/     M anipulation  |                                                 |
\*---------------------------------------------------------------------------*/
FoamFile
{
    version     2.0;
    format      ascii;
    class       volScalarField;
    location    "5.8";
    object      T;
}
// * * * * * * * * * * * * * * * * * * * * * * * * * * * * * * * * * * * * * //

dimensions      [0 0 0 1 0 0 0];

internalField   nonuniform List<scalar> 
2048
(
9.85459
9.85528
9.85665
9.85868
9.86134
9.86461
9.86843
9.87274
9.87748
9.88255
9.88788
9.89338
9.89897
9.90456
9.91008
9.91548
9.9207
9.92569
9.93044
9.93492
9.93911
9.94302
9.94665
9.95
9.95309
9.95593
9.95854
9.96093
9.96312
9.96512
9.96694
9.96861
9.97014
9.97153
9.97279
9.97395
9.97499
9.97594
9.9768
9.97758
9.97828
9.97891
9.97947
9.97997
9.98043
9.98083
9.98119
9.98151
9.98179
9.98204
9.98227
9.98247
9.98265
9.98281
9.98295
9.98307
9.98318
9.98327
9.98335
9.98341
9.98346
9.9835
9.98353
9.98354
9.56957
9.57161
9.57566
9.58168
9.5896
9.5993
9.61064
9.62345
9.6375
9.65258
9.66841
9.68474
9.70132
9.71791
9.73429
9.75029
9.76574
9.78054
9.79458
9.80783
9.82023
9.83179
9.84251
9.85241
9.86154
9.86993
9.87762
9.88467
9.89112
9.89702
9.90241
9.90733
9.91183
9.91593
9.91966
9.92306
9.92615
9.92895
9.93149
9.93378
9.93584
9.93769
9.93936
9.94084
9.94217
9.94336
9.94442
9.94536
9.9462
9.94694
9.94761
9.9482
9.94872
9.94919
9.9496
9.94996
9.95028
9.95055
9.95078
9.95097
9.95112
9.95124
9.95131
9.95135
9.29548
9.29882
9.30548
9.31537
9.32839
9.34435
9.36302
9.38411
9.40726
9.43209
9.45816
9.48504
9.51231
9.53957
9.56648
9.59273
9.61807
9.6423
9.66528
9.68693
9.70719
9.72605
9.74354
9.75968
9.77455
9.7882
9.80073
9.81219
9.82269
9.83228
9.84105
9.84906
9.85637
9.86304
9.86911
9.87464
9.87967
9.88422
9.88834
9.89207
9.89542
9.89843
9.90113
9.90355
9.9057
9.90763
9.90934
9.91087
9.91223
9.91344
9.91451
9.91547
9.91632
9.91708
9.91775
9.91834
9.91885
9.91929
9.91967
9.91998
9.92023
9.92042
9.92054
9.9206
9.03106
9.03568
9.04487
9.05855
9.07656
9.09867
9.12455
9.1538
9.18593
9.22038
9.25654
9.2938
9.33156
9.36929
9.40647
9.44269
9.47761
9.51096
9.54256
9.57228
9.60006
9.6259
9.64982
9.67189
9.6922
9.71084
9.72793
9.74357
9.75787
9.77095
9.7829
9.79381
9.80378
9.81287
9.82115
9.82869
9.83554
9.84175
9.84737
9.85244
9.857
9.8611
9.86477
9.86806
9.87099
9.87361
9.87594
9.87801
9.87985
9.88149
9.88295
9.88425
9.88541
9.88644
9.88735
9.88815
9.88885
9.88945
9.88997
9.89039
9.89073
9.89099
9.89115
9.89124
8.77528
8.78115
8.79283
8.81023
8.83316
8.86134
8.89438
8.93176
8.97282
9.01685
9.06304
9.1106
9.15876
9.20679
9.25406
9.30004
9.34429
9.38649
9.4264
9.46387
9.49885
9.53133
9.56137
9.58906
9.61451
9.63785
9.65923
9.67879
9.69667
9.71301
9.72795
9.74159
9.75404
9.76541
9.77576
9.78519
9.79375
9.80151
9.80853
9.81486
9.82056
9.82568
9.83026
9.83435
9.838
9.84126
9.84415
9.84673
9.84902
9.85106
9.85288
9.8545
9.85593
9.85721
9.85835
9.85935
9.86022
9.86098
9.86162
9.86216
9.86258
9.8629
9.86311
9.86322
8.5273
8.53438
8.54851
8.56956
8.59737
8.63159
8.67178
8.71728
8.76732
8.82096
8.87722
8.93508
8.99358
9.05184
9.10907
9.16463
9.218
9.26878
9.31672
9.36165
9.40351
9.44232
9.47816
9.51115
9.54143
9.56919
9.59459
9.61781
9.63904
9.65843
9.67615
9.69234
9.70712
9.72061
9.7329
9.74409
9.75425
9.76346
9.77179
9.7793
9.78606
9.79211
9.79754
9.80238
9.80669
9.81053
9.81395
9.81699
9.81969
9.8221
9.82424
9.82614
9.82784
9.82935
9.83069
9.83188
9.83292
9.83382
9.83458
9.83522
9.83573
9.83611
9.83636
9.83649
8.28641
8.29469
8.3112
8.33586
8.36849
8.40874
8.45609
8.5098
8.5689
8.63226
8.69867
8.7669
8.83576
8.9042
8.9713
9.0363
9.09859
9.15773
9.21343
9.26552
9.31395
9.35877
9.40009
9.43807
9.4729
9.50478
9.53393
9.56056
9.58489
9.60712
9.62743
9.64599
9.66293
9.6784
9.6925
9.70534
9.71699
9.72755
9.7371
9.7457
9.75343
9.76036
9.76655
9.77208
9.777
9.78138
9.78527
9.78873
9.7918
9.79454
9.79698
9.79915
9.80108
9.80281
9.80434
9.80569
9.80688
9.80792
9.8088
9.80953
9.81012
9.81055
9.81085
9.81099
8.05206
8.06149
8.08033
8.10853
8.14593
8.1922
8.24677
8.30878
8.37709
8.45034
8.52706
8.60576
8.68505
8.76368
8.84058
8.91489
8.98593
9.05321
9.11641
9.17537
9.23006
9.28058
9.32706
9.36972
9.40878
9.44451
9.47714
9.50694
9.53414
9.55899
9.58169
9.60244
9.6214
9.63871
9.65449
9.66885
9.68189
9.69371
9.70438
9.71399
9.72262
9.73035
9.73726
9.7434
9.74888
9.75374
9.75806
9.76189
9.7653
9.76834
9.77104
9.77345
9.7756
9.77751
9.77922
9.78074
9.78207
9.78323
9.78422
9.78504
9.7857
9.78619
9.78652
9.78669
7.82379
7.83433
7.85542
7.88707
7.92918
7.98146
8.04331
8.11377
8.19149
8.27484
8.36207
8.45141
8.54122
8.63006
8.71673
8.80024
8.87986
8.95506
9.0255
9.09105
9.1517
9.20758
9.25892
9.30595
9.34896
9.38824
9.42409
9.4568
9.48665
9.51391
9.53883
9.5616
9.58242
9.60143
9.61876
9.63454
9.64887
9.66185
9.67356
9.68411
9.69357
9.70203
9.70957
9.71629
9.72225
9.72755
9.73225
9.73642
9.74013
9.74343
9.74637
9.74899
9.75133
9.75343
9.7553
9.75696
9.75842
9.7597
9.76079
9.7617
9.76243
9.76298
9.76334
9.76352
7.60125
7.61283
7.63608
7.67106
7.7178
7.77607
7.84528
7.92435
8.01172
8.10546
8.20345
8.30362
8.40408
8.50317
8.59956
8.69218
8.78023
8.86313
8.94056
9.01239
9.07868
9.13963
9.19549
9.24659
9.29326
9.33583
9.37464
9.41002
9.44229
9.47176
9.4987
9.52334
9.54587
9.56646
9.58524
9.60233
9.61785
9.6319
9.64457
9.65597
9.66619
9.67532
9.68344
9.69066
9.69707
9.70275
9.70779
9.71226
9.71623
9.71976
9.72291
9.72572
9.72824
9.73049
9.7325
9.7343
9.73588
9.73727
9.73846
9.73945
9.74025
9.74085
9.74125
9.74145
7.38415
7.39672
7.42198
7.46016
7.5114
7.57561
7.65225
7.74014
7.83747
7.94191
8.05096
8.1622
8.27343
8.38283
8.48892
8.59055
8.68685
8.77725
8.8614
8.93923
9.01084
9.07652
9.13661
9.19148
9.24151
9.2871
9.32861
9.36643
9.40091
9.4324
9.46118
9.48753
9.51165
9.53369
9.5538
9.57211
9.58873
9.60376
9.61733
9.62951
9.64042
9.65015
9.65879
9.66647
9.67326
9.67928
9.68461
9.68934
9.69354
9.69727
9.7006
9.70358
9.70625
9.70864
9.71079
9.71271
9.71441
9.7159
9.71719
9.71826
9.71912
9.71977
9.7202
9.72042
7.1723
7.18576
7.21289
7.25406
7.30964
7.37973
7.46387
7.56081
7.66843
7.78395
7.90441
8.02696
8.14912
8.26888
8.38463
8.49515
8.59956
8.69723
8.78785
8.87136
8.94798
9.01808
9.08207
9.14041
9.19354
9.24188
9.28586
9.32588
9.36236
9.39566
9.42614
9.45405
9.47962
9.50301
9.52436
9.54379
9.56142
9.57737
9.59174
9.60464
9.61617
9.62644
9.63556
9.64363
9.65076
9.65708
9.66266
9.66761
9.672
9.67591
9.6794
9.68252
9.68532
9.68784
9.69011
9.69215
9.69396
9.69555
9.69692
9.69807
9.69899
9.69969
9.70015
9.70039
6.96556
6.97979
7.00859
7.05252
7.11222
7.18806
7.27976
7.38601
7.50433
7.63138
7.76362
7.89775
8.031
8.16115
8.28651
8.40583
8.51817
8.62291
8.71971
8.8086
8.88989
8.96407
9.03166
9.09319
9.14914
9.19999
9.2462
9.28821
9.32648
9.36142
9.39341
9.42276
9.44967
9.47431
9.4968
9.51727
9.53583
9.55262
9.56773
9.58129
9.59339
9.60414
9.61366
9.62208
9.62951
9.63607
9.64187
9.647
9.65156
9.65562
9.65923
9.66248
9.6654
9.66803
9.67041
9.67255
9.67446
9.67615
9.67761
9.67883
9.67981
9.68056
9.68106
9.6813
6.76383
6.77872
6.80895
6.85534
6.91887
7.00029
7.09959
7.21545
7.34495
7.48402
7.62844
7.77445
7.91892
8.05948
8.1944
8.32238
8.44249
8.55407
8.65679
8.75073
8.83636
8.9143
8.98518
9.04961
9.10813
9.16125
9.20946
9.25325
9.29311
9.32951
9.36288
9.39353
9.42168
9.44747
9.47102
9.49245
9.51187
9.52942
9.54522
9.55937
9.57198
9.58317
9.59305
9.60175
9.60943
9.6162
9.62218
9.62747
9.63216
9.63634
9.64006
9.64341
9.64643
9.64916
9.65164
9.65389
9.65589
9.65767
9.65921
9.6605
9.66155
9.66234
9.66287
9.66313
6.56708
6.58248
6.61387
6.66236
6.72935
6.8161
6.92302
7.04883
7.19006
7.34171
7.49878
7.65694
7.81275
7.96372
8.10812
8.24463
8.37232
8.49054
8.5989
8.69755
8.78715
8.86852
8.9424
9.00947
9.07032
9.12548
9.17547
9.22084
9.26209
9.29978
9.33438
9.36624
9.39553
9.42239
9.44692
9.46923
9.48945
9.5077
9.52411
9.53881
9.55188
9.56345
9.57364
9.58259
9.59047
9.5974
9.60353
9.60894
9.61375
9.61802
9.62184
9.62527
9.62837
9.63119
9.63376
9.6361
9.6382
9.64006
9.64168
9.64305
9.64415
9.64499
9.64554
9.64582
6.37529
6.39103
6.42327
6.47344
6.54345
6.63521
6.74971
6.88584
7.03948
7.20436
7.37452
7.54514
7.71237
7.8737
8.02748
8.17236
8.30746
8.43213
8.54584
8.64883
8.74204
8.82652
8.90311
8.97255
9.03551
9.09249
9.14407
9.19081
9.23328
9.27208
9.30778
9.34074
9.3711
9.39896
9.4244
9.44753
9.46847
9.48737
9.50435
9.51953
9.53303
9.54493
9.55537
9.56452
9.57256
9.57963
9.58586
9.59138
9.59627
9.60061
9.6045
9.608
9.61117
9.61407
9.61672
9.61915
9.62134
9.62329
9.62498
9.62642
9.62758
9.62846
9.62905
9.62934
6.18849
6.2044
6.23713
6.28849
6.36098
6.4573
6.5793
6.72619
6.89306
7.07187
7.2556
7.43895
7.61766
7.78925
7.95228
8.10537
8.2477
8.37863
8.49742
8.60437
8.7008
8.78807
8.86708
8.93866
9.00351
9.06212
9.11509
9.16303
9.20653
9.24627
9.28294
9.31692
9.34829
9.37708
9.40338
9.42725
9.44885
9.46834
9.48584
9.50147
9.51534
9.52754
9.53818
9.54749
9.55565
9.56282
9.56913
9.57472
9.57967
9.58407
9.58801
9.59155
9.59478
9.59775
9.60048
9.60299
9.60527
9.6073
9.60908
9.61058
9.61181
9.61273
9.61334
9.61365
6.00671
6.02259
6.05544
6.10745
6.18177
6.28211
6.41143
6.56958
6.75069
6.9442
7.14195
7.33833
7.52849
7.7102
7.88235
8.04343
8.19281
8.32989
8.45345
8.56393
8.66318
8.75294
8.8341
8.90758
8.97414
9.0342
9.08837
9.13735
9.18169
9.2222
9.25972
9.29467
9.32698
9.35665
9.38375
9.40832
9.43052
9.45055
9.46851
9.48455
9.49877
9.51121
9.52202
9.53143
9.53967
9.54691
9.55328
9.55892
9.56391
9.56835
9.57232
9.5759
9.57916
9.58219
9.585
9.5876
9.58996
9.59207
9.59392
9.5955
9.59678
9.59774
9.59839
9.5987
5.83001
5.84567
5.87824
5.93029
6.0057
6.10933
6.24568
6.41566
6.6123
6.82135
7.03352
7.24323
7.44476
7.63632
7.81748
7.98632
8.14255
8.28572
8.41378
8.52729
8.62891
8.72089
8.80396
8.87911
8.94724
9.00857
9.06376
9.11363
9.15863
9.19972
9.23797
9.27387
9.30709
9.33758
9.36545
9.39065
9.41338
9.4339
9.45229
9.46869
9.48325
9.4959
9.50682
9.51629
9.52458
9.53186
9.53826
9.54393
9.54895
9.5534
9.55739
9.56099
9.56428
9.56735
9.57024
9.57292
9.57536
9.57756
9.57949
9.58113
9.58247
9.58348
9.58415
9.58447
5.65845
5.6737
5.70558
5.75702
5.83266
5.9387
6.08162
6.26407
6.47791
6.70336
6.93025
7.15364
7.36634
7.5674
7.75748
7.93379
8.09665
8.24597
8.37824
8.49422
8.59774
8.69172
8.77645
8.85305
8.92264
8.98507
9.04111
9.09175
9.13724
9.1787
9.21758
9.25443
9.28853
9.31978
9.34838
9.37415
9.39736
9.41835
9.43711
9.45385
9.46872
9.48156
9.49252
9.502
9.51033
9.51762
9.52403
9.52971
9.53473
9.53919
9.54319
9.54678
9.55008
9.5532
9.55617
9.55892
9.56144
9.56373
9.56573
9.56744
9.56885
9.5699
9.57059
9.57092
5.49209
5.50672
5.5375
5.58767
5.66259
5.76996
5.91876
6.11436
6.34764
6.59031
6.83201
7.06959
7.29312
7.50316
7.70218
7.8856
8.05481
8.21055
8.34673
8.46448
8.56939
8.66523
8.75137
8.82919
8.90021
8.96357
9.02028
9.0716
9.11739
9.15899
9.19838
9.23626
9.2712
9.30316
9.3325
9.35877
9.38238
9.40381
9.4229
9.43993
9.45513
9.46812
9.47908
9.48852
9.49685
9.50413
9.51052
9.51622
9.52122
9.52566
9.52966
9.53325
9.53654
9.53969
9.54274
9.54557
9.54817
9.55055
9.55262
9.5544
9.55587
9.55697
9.55768
9.55801
5.33097
5.34482
5.3741
5.42231
5.49548
5.60287
5.75655
5.96599
6.22177
6.48234
6.73865
6.99117
7.22496
7.44325
7.65147
7.84148
8.01665
8.17938
8.31915
8.43782
8.54352
8.64125
8.72853
8.80732
8.87981
8.94393
9.00109
9.05311
9.09899
9.14044
9.18023
9.21928
9.25505
9.28764
9.31774
9.34444
9.36835
9.39024
9.4096
9.42689
9.44245
9.45556
9.46643
9.47579
9.48412
9.49136
9.49771
9.50341
9.50839
9.5128
9.51679
9.52035
9.52361
9.52678
9.52993
9.53285
9.53552
9.53798
9.54013
9.54197
9.54352
9.54466
9.54538
9.54572
5.17516
5.18805
5.21544
5.26102
5.33135
5.43724
5.59439
5.81826
6.1008
6.37963
6.64985
6.91853
7.16174
7.38723
7.60527
7.80117
7.98174
8.15248
8.29543
8.41397
8.51979
8.61963
8.70777
8.7872
8.86137
8.92603
8.98341
9.0362
9.08196
9.12293
9.16298
9.20347
9.24002
9.27311
9.30405
9.33108
9.3552
9.37758
9.39714
9.41463
9.43064
9.44383
9.45453
9.46374
9.47208
9.47925
9.48554
9.49125
9.49619
9.50055
9.50454
9.50805
9.51125
9.51445
9.51772
9.52071
9.52344
9.52602
9.52823
9.53012
9.53176
9.53294
9.53367
9.53401
5.02467
5.03646
5.06163
5.10392
5.17028
5.27292
5.4316
5.67019
5.98555
6.28241
6.56511
6.85203
7.10334
7.33452
7.56366
7.7644
7.9495
8.12997
8.27558
8.39263
8.4978
8.60032
8.68892
8.76857
8.84484
8.90975
8.96702
9.02085
9.06622
9.10628
9.14643
9.18881
9.22604
9.25946
9.29142
9.31865
9.34282
9.3658
9.38548
9.40308
9.41968
9.4329
9.44333
9.45233
9.46071
9.46779
9.47398
9.47972
9.48459
9.48888
9.49289
9.49633
9.49945
9.50264
9.50608
9.50913
9.51192
9.51462
9.51688
9.51883
9.52058
9.5218
9.52253
9.52285
4.87952
4.89008
4.91273
4.95115
5.01242
5.10986
5.26748
5.52049
5.8773
6.19094
6.48363
6.79219
7.04961
7.28434
7.52687
7.73089
7.91915
8.11214
8.25962
8.37349
8.47704
8.58332
8.67185
8.75111
8.83024
8.895
8.95172
9.00706
9.05174
9.09035
9.13036
9.17533
9.21307
9.24657
9.27984
9.30709
9.33112
9.35489
9.37454
9.39214
9.40955
9.42275
9.43277
9.44148
9.44997
9.45692
9.46297
9.46879
9.47356
9.47775
9.48181
9.48516
9.48815
9.49133
9.49498
9.49809
9.50091
9.50376
9.50606
9.50805
9.50993
9.51119
9.51191
9.51222
4.7397
4.74893
4.76883
4.80285
4.85797
4.94812
5.10132
5.3673
5.77795
6.1055
6.40418
6.73992
7.00044
7.2356
7.49541
7.70036
7.88967
8.09948
8.24761
8.35618
8.45693
8.56879
8.65642
8.73443
8.81766
8.88167
8.93722
8.99492
9.03848
9.07499
9.11453
9.16315
9.20108
9.23426
9.26936
9.29634
9.31995
9.34485
9.36428
9.3817
9.40027
9.41336
9.4228
9.43113
9.43985
9.44661
9.45246
9.45844
9.46308
9.46712
9.47128
9.47451
9.47732
9.48048
9.48443
9.48756
9.49038
9.49344
9.49575
9.49775
9.49982
9.5011
9.50179
9.50208
4.60517
4.61301
4.62996
4.65918
4.70718
4.78788
4.93246
5.20802
5.6903
6.02634
6.32493
6.69659
6.95565
7.18681
7.47018
7.67256
7.85967
8.09283
8.23962
8.34031
8.43672
8.55703
8.64252
8.71802
8.80733
8.86967
8.92316
8.98455
9.02642
9.06004
9.09858
9.15244
9.19004
9.22233
9.26004
9.28637
9.30916
9.33574
9.35466
9.37162
9.39188
9.40469
9.41336
9.42119
9.43035
9.43684
9.4424
9.44866
9.45311
9.45695
9.4613
9.46436
9.46694
9.47002
9.47441
9.47752
9.48028
9.48363
9.48593
9.4879
9.49021
9.49151
9.49216
9.49242
4.4759
4.4823
4.49618
4.52026
4.56033
4.62948
4.76039
5.039
5.6183
5.95368
6.24323
6.66426
6.91508
7.13594
7.4526
7.64721
7.82727
8.09346
8.23571
8.32549
8.41546
8.5486
8.63004
8.70121
8.79963
8.85892
8.90908
8.97622
9.01555
9.04534
9.08209
9.14352
9.17991
9.21048
9.25206
9.27712
9.29854
9.32765
9.34561
9.36171
9.38447
9.39675
9.40441
9.41159
9.42148
9.42757
9.43273
9.43946
9.44362
9.44718
9.45185
9.4547
9.45698
9.45992
9.46494
9.46795
9.47059
9.47434
9.47655
9.47845
9.48111
9.48239
9.48298
9.4832
4.3518
4.35675
4.3675
4.38624
4.41776
4.47344
4.58493
4.85513
5.56749
5.88758
6.15539
6.64592
6.8785
7.0802
7.44482
7.62404
7.78991
8.10322
8.23584
8.31131
8.39194
8.54437
8.61886
8.68312
8.79517
8.84931
8.89437
8.9703
9.00587
9.03077
9.0645
9.13684
9.17066
9.19834
9.24565
9.26854
9.28781
9.32073
9.33709
9.35174
9.37815
9.38949
9.39588
9.40221
9.41328
9.41878
9.42336
9.43085
9.4346
9.43776
9.44296
9.44551
9.44741
9.45011
9.45602
9.45883
9.46124
9.46557
9.46762
9.46936
9.47251
9.47373
9.47422
9.4744
4.2328
4.2363
4.24391
4.25722
4.2798
4.32046
4.40641
4.64942
5.54542
5.82791
6.05633
6.64583
6.84561
7.01589
7.44991
7.60279
7.74421
8.12477
8.23984
8.2974
8.36459
8.54559
8.60886
8.66259
8.79482
8.84073
8.87821
8.96738
8.99734
9.01624
9.04507
9.13306
9.16223
9.1854
9.24118
9.26059
9.27664
9.31524
9.32907
9.34142
9.37313
9.38289
9.38773
9.39292
9.40582
9.41044
9.41421
9.42287
9.42601
9.42861
9.43464
9.43676
9.4382
9.44052
9.44771
9.45013
9.45217
9.45733
9.45909
9.46058
9.46442
9.46549
9.46587
9.46601
4.11879
4.12086
4.12537
4.13327
4.14674
4.17136
4.22599
4.41233
5.56224
5.7742
5.93928
6.66984
6.81598
6.93809
7.47215
7.58318
7.68574
8.1618
8.24722
8.2835
8.3314
8.55403
8.5999
8.6381
8.79982
8.83305
8.85956
8.96824
8.98986
9.00174
9.02283
9.13308
9.15454
9.17101
9.23914
9.25319
9.26455
9.31153
9.32149
9.33035
9.36969
9.37689
9.37992
9.38356
9.3992
9.40251
9.40516
9.41559
9.41783
9.41965
9.42692
9.42844
9.42934
9.43104
9.44006
9.44184
9.4433
9.44968
9.45096
9.45203
9.45685
9.45766
9.4579
9.45798
4.00965
4.01033
4.01182
4.01443
4.01888
4.02709
4.04601
4.13113
5.63136
5.72548
5.79538
6.72583
6.789
6.84041
7.51734
7.5649
7.6087
8.21929
8.25705
8.26955
8.28979
8.5721
8.59176
8.60771
8.81187
8.82609
8.83709
8.97399
8.98326
8.98734
8.99653
9.13812
9.14747
9.15433
9.24026
9.24627
9.25099
9.31007
9.3143
9.31805
9.36822
9.37138
9.37242
9.37393
9.39357
9.39498
9.39606
9.40908
9.41003
9.41078
9.41987
9.42051
9.42082
9.42157
9.43316
9.43393
9.43455
9.44264
9.4432
9.44365
9.44985
9.45021
9.45029
9.45032
)
;

boundaryField
{
    left
    {
        type            zeroGradient;
    }
    right
    {
        type            zeroGradient;
    }
    interface
    {
        type            fixedValue;
        value           nonuniform List<scalar> 
64
(
3.95628
3.95628
3.95628
3.95628
3.95628
3.95628
3.95628
3.95628
5.7023
5.7023
5.7023
6.77613
6.77613
6.77613
7.55607
7.55607
7.55607
8.26253
8.26253
8.26253
8.26253
8.58788
8.58788
8.58788
8.82278
8.82278
8.82278
8.98017
8.98017
8.98017
8.98017
9.14408
9.14408
9.14408
9.24292
9.24292
9.24292
9.31081
9.31081
9.31081
9.36874
9.36874
9.36874
9.36874
9.3913
9.3913
9.3913
9.40623
9.40623
9.40623
9.41665
9.41665
9.41665
9.41665
9.43007
9.43007
9.43007
9.4394
9.4394
9.4394
9.44658
9.44658
9.44658
9.44658
)
;
    }
    bottom
    {
        type            fixedValue;
        value           uniform 10;
    }
    defaultFaces
    {
        type            empty;
    }
}


// ************************************************************************* //
