/*--------------------------------*- C++ -*----------------------------------*\
| =========                 |                                                 |
| \\      /  F ield         | OpenFOAM: The Open Source CFD Toolbox           |
|  \\    /   O peration     | Version:  5.x                                   |
|   \\  /    A nd           | Web:      www.OpenFOAM.org                      |
|    \\/     M anipulation  |                                                 |
\*---------------------------------------------------------------------------*/
FoamFile
{
    version     2.0;
    format      ascii;
    class       volScalarField;
    location    "2.5";
    object      gradTy;
}
// * * * * * * * * * * * * * * * * * * * * * * * * * * * * * * * * * * * * * //

dimensions      [0 -1 0 1 0 0 0];

internalField   nonuniform List<scalar> 
2048
(
-21.5405
-21.4564
-21.2891
-21.0409
-20.7151
-20.3166
-19.8518
-19.3287
-18.7565
-18.1457
-17.5071
-16.8519
-16.1909
-15.5338
-14.8896
-14.2655
-13.6676
-13.1005
-12.5671
-12.0694
-11.6082
-11.1833
-10.7938
-10.4382
-10.1148
-9.82145
-9.55595
-9.31607
-9.09959
-8.90438
-8.72846
-8.56996
-8.42721
-8.29868
-8.18302
-8.079
-7.98553
-7.90164
-7.82643
-7.7591
-7.69892
-7.64521
-7.59734
-7.55473
-7.51685
-7.48321
-7.45335
-7.42685
-7.40335
-7.38249
-7.36399
-7.34757
-7.33302
-7.32013
-7.30874
-7.29873
-7.28998
-7.28243
-7.27602
-7.2707
-7.26646
-7.26329
-7.26118
-7.26012
-21.6084
-21.5234
-21.3544
-21.1034
-20.7737
-20.37
-19.8988
-19.3681
-18.7875
-18.1678
-17.5202
-16.8564
-16.1873
-15.5231
-14.8728
-14.2439
-13.6424
-13.0726
-12.5377
-12.0394
-11.5783
-11.1541
-10.7657
-10.4116
-10.0899
-9.79827
-9.53458
-9.29647
-9.0817
-8.8881
-8.71366
-8.55651
-8.41498
-8.28754
-8.17286
-8.06971
-7.97703
-7.89385
-7.81928
-7.75254
-7.6929
-7.63969
-7.59229
-7.55011
-7.51263
-7.47935
-7.44982
-7.42363
-7.40039
-7.37977
-7.36148
-7.34525
-7.33085
-7.31809
-7.30681
-7.29688
-7.28819
-7.28069
-7.2743
-7.269
-7.26478
-7.26161
-7.2595
-7.25844
-21.7374
-21.6509
-21.4787
-21.2225
-20.8854
-20.4719
-19.9885
-19.4433
-18.8466
-18.2097
-17.5448
-16.8642
-16.1798
-15.502
-14.8403
-14.2022
-13.5937
-13.0192
-12.4815
-11.9821
-11.5213
-11.0985
-10.7124
-10.3611
-10.0426
-9.7544
-9.49416
-9.25945
-9.04793
-8.85738
-8.68575
-8.53116
-8.39193
-8.26656
-8.15371
-8.05221
-7.96101
-7.87915
-7.8058
-7.74017
-7.68155
-7.62929
-7.58276
-7.54139
-7.50466
-7.47207
-7.44317
-7.41754
-7.39481
-7.37465
-7.35676
-7.34088
-7.32677
-7.31425
-7.30317
-7.29339
-7.28482
-7.27739
-7.27106
-7.26579
-7.26158
-7.25842
-7.25631
-7.25525
-21.9205
-21.832
-21.6555
-21.3923
-21.0449
-20.6176
-20.1167
-19.5507
-18.9306
-18.2688
-17.5789
-16.8742
-16.1676
-15.4705
-14.7924
-14.1414
-13.5233
-12.9422
-12.4008
-11.9001
-11.44
-11.0195
-10.6368
-10.2897
-9.97583
-9.69256
-9.43728
-9.20741
-9.00052
-8.8143
-8.64665
-8.49567
-8.35967
-8.23718
-8.12691
-8.0277
-7.93856
-7.85856
-7.7869
-7.72282
-7.66563
-7.61469
-7.56938
-7.52916
-7.49348
-7.46186
-7.43384
-7.40902
-7.38701
-7.36749
-7.35015
-7.33475
-7.32106
-7.30888
-7.29807
-7.28851
-7.28009
-7.27278
-7.26651
-7.26129
-7.25709
-7.25394
-7.25183
-7.25076
-22.1514
-22.0606
-21.8792
-21.6077
-21.2479
-20.8033
-20.2801
-19.6874
-19.037
-18.343
-17.6206
-16.8848
-16.1498
-15.4279
-14.7294
-14.0621
-13.4321
-12.8432
-12.2976
-11.7956
-11.3368
-10.9195
-10.5414
-10.1999
-9.89214
-9.61521
-9.36627
-9.14259
-8.94157
-8.76081
-8.59815
-8.45167
-8.31969
-8.20078
-8.09368
-7.9973
-7.91069
-7.83299
-7.76342
-7.70125
-7.64583
-7.59653
-7.55276
-7.51396
-7.47959
-7.44918
-7.42227
-7.39844
-7.37733
-7.3586
-7.34197
-7.32717
-7.31399
-7.30223
-7.29176
-7.28245
-7.27423
-7.26704
-7.26086
-7.25567
-7.25149
-7.24834
-7.24622
-7.24515
-22.4247
-22.3316
-22.145
-21.8646
-21.4908
-21.0262
-20.4765
-19.8513
-19.1638
-18.4302
-17.6679
-16.8943
-16.125
-15.3735
-14.6507
-13.9646
-13.3209
-12.7233
-12.1731
-11.6704
-11.2138
-10.8009
-10.4287
-10.0941
-9.7938
-9.52456
-9.28327
-9.06698
-8.87296
-8.69867
-8.5419
-8.40068
-8.27337
-8.15859
-8.05515
-7.96203
-7.87834
-7.80328
-7.73611
-7.67616
-7.62279
-7.5754
-7.53341
-7.49627
-7.46344
-7.43445
-7.40883
-7.38617
-7.3661
-7.34831
-7.33249
-7.31839
-7.3058
-7.29454
-7.28446
-7.27544
-7.26743
-7.26038
-7.25427
-7.24912
-7.24495
-7.24178
-7.23965
-7.23857
-22.7351
-22.6401
-22.4488
-22.1595
-21.7709
-21.2841
-20.7041
-20.0408
-19.3093
-18.5286
-17.7191
-16.9009
-16.0917
-15.3062
-14.5557
-13.8485
-13.19
-12.5831
-12.0287
-11.526
-11.0726
-10.6654
-10.3006
-9.97435
-9.6829
-9.42265
-9.19022
-8.98245
-8.79643
-8.62951
-8.47938
-8.34407
-8.22196
-8.11175
-8.01233
-7.9228
-7.84233
-7.77018
-7.70566
-7.64816
-7.59706
-7.5518
-7.51181
-7.47653
-7.44544
-7.41804
-7.39386
-7.37251
-7.35362
-7.33687
-7.32196
-7.30865
-7.29673
-7.28601
-7.27635
-7.26766
-7.25987
-7.25296
-7.24692
-7.24179
-7.23761
-7.23442
-7.23226
-7.23117
-23.0778
-22.9815
-22.7866
-22.4894
-22.0861
-21.5757
-20.9617
-20.2547
-19.4721
-18.6364
-17.7721
-16.9026
-16.0481
-15.2246
-14.4439
-13.7139
-13.0396
-12.4234
-11.8653
-11.3637
-10.915
-10.515
-10.1591
-9.84263
-9.56136
-9.31134
-9.0889
-8.89067
-8.71358
-8.55482
-8.41198
-8.28309
-8.16659
-8.06126
-7.96615
-7.88044
-7.80339
-7.73435
-7.67268
-7.6178
-7.56916
-7.5262
-7.48838
-7.45514
-7.42595
-7.40028
-7.37769
-7.35777
-7.34015
-7.32453
-7.31062
-7.29817
-7.28696
-7.27683
-7.26763
-7.25927
-7.25171
-7.24493
-7.23895
-7.23382
-7.2296
-7.22637
-7.22417
-7.22306
-23.4481
-23.3515
-23.1548
-22.8516
-22.4348
-21.9001
-21.2491
-20.4926
-19.6511
-18.7519
-17.8249
-16.8975
-15.9927
-15.1276
-14.3143
-13.5602
-12.8698
-12.2446
-11.6839
-11.1848
-10.7425
-10.3514
-10.0059
-9.70074
-9.43096
-9.19231
-8.9809
-8.79317
-8.62583
-8.47594
-8.34095
-8.21888
-8.10827
-8.00804
-7.9174
-7.83566
-7.76218
-7.69638
-7.63768
-7.58556
-7.53951
-7.499
-7.4635
-7.43245
-7.40528
-7.38148
-7.36059
-7.34218
-7.32593
-7.31151
-7.29866
-7.28712
-7.27668
-7.26717
-7.25844
-7.25043
-7.24309
-7.23643
-7.23048
-7.22533
-7.22105
-7.21775
-7.2155
-7.21435
-23.8411
-23.7459
-23.5499
-23.2437
-22.8158
-22.2572
-21.5664
-20.7543
-19.8454
-18.8736
-17.8755
-16.8835
-15.9235
-15.0138
-14.1662
-13.3874
-12.6809
-12.0474
-11.4853
-10.9904
-10.5564
-10.1762
-9.84291
-9.55039
-9.29332
-9.06711
-8.86769
-8.69131
-8.5345
-8.3941
-8.26742
-8.15246
-8.0479
-7.95288
-7.86679
-7.78909
-7.71927
-7.65679
-7.60116
-7.55187
-7.50849
-7.47054
-7.43749
-7.40876
-7.38374
-7.36191
-7.3428
-7.32599
-7.31116
-7.29801
-7.28626
-7.27568
-7.26605
-7.25718
-7.24894
-7.24127
-7.23414
-7.22758
-7.22164
-7.21643
-7.21206
-7.20866
-7.20633
-7.20515
-24.2522
-24.1601
-23.9685
-23.6636
-23.2283
-22.6473
-21.9145
-21.0402
-20.0543
-18.9997
-17.9214
-16.8581
-15.8386
-14.882
-13.9989
-13.1952
-12.4731
-11.8323
-11.2704
-10.7818
-10.3583
-9.99101
-9.67162
-9.39319
-9.14996
-8.93716
-8.75059
-8.58633
-8.44074
-8.31041
-8.19241
-8.08474
-7.98628
-7.89647
-7.81492
-7.74129
-7.67515
-7.61604
-7.5635
-7.5171
-7.47645
-7.44114
-7.41064
-7.38434
-7.36158
-7.34181
-7.32454
-7.30939
-7.29603
-7.28418
-7.27359
-7.264
-7.25521
-7.247
-7.23926
-7.23192
-7.22498
-7.21849
-7.21253
-7.20721
-7.20271
-7.19918
-7.19675
-7.19553
-24.6765
-24.59
-24.4071
-24.1092
-23.6719
-23.0715
-22.295
-21.3513
-20.2771
-19.1281
-17.9603
-16.8189
-15.7362
-14.7309
-13.812
-12.9837
-12.2467
-11.5997
-11.0398
-10.56
-10.1497
-9.79745
-9.4937
-9.23068
-9.00229
-8.80373
-8.63075
-8.47932
-8.34562
-8.22588
-8.11687
-8.01654
-7.92412
-7.8394
-7.76231
-7.6927
-7.63025
-7.57451
-7.52507
-7.48156
-7.44366
-7.41105
-7.3832
-7.35944
-7.33903
-7.32138
-7.30601
-7.29255
-7.28069
-7.27018
-7.26077
-7.25222
-7.24428
-7.23675
-7.2295
-7.22248
-7.21572
-7.20927
-7.20324
-7.19778
-7.19308
-7.18939
-7.18685
-7.18558
-25.1089
-25.0308
-24.862
-24.5782
-24.1464
-23.5315
-22.7103
-21.6888
-20.5132
-19.2567
-17.9893
-16.7633
-15.6143
-14.5595
-13.6052
-12.7531
-12.0021
-11.3501
-10.7943
-10.3263
-9.93197
-9.59712
-9.3107
-9.06431
-8.85159
-8.66795
-8.50921
-8.37123
-8.25004
-8.14145
-8.04166
-7.94859
-7.86199
-7.78217
-7.70938
-7.64373
-7.58493
-7.53254
-7.48618
-7.44554
-7.41037
-7.38048
-7.35539
-7.33427
-7.3163
-7.30083
-7.28739
-7.27563
-7.26529
-7.25613
-7.24792
-7.24043
-7.23339
-7.22655
-7.21977
-7.21306
-7.20644
-7.2
-7.19386
-7.1882
-7.18326
-7.17936
-7.17667
-7.17535
-25.5447
-25.478
-25.3295
-25.0686
-24.6518
-24.0295
-23.1638
-22.0551
-20.7617
-19.3828
-18.0053
-16.6884
-15.4709
-14.3673
-13.3784
-12.504
-11.7402
-11.0841
-10.5346
-10.0817
-9.70676
-9.39163
-9.12416
-8.89545
-8.69901
-8.53084
-8.38687
-8.26287
-8.15484
-8.05796
-7.96757
-7.88151
-7.80039
-7.7252
-7.6565
-7.5947
-7.53952
-7.49043
-7.44711
-7.40926
-7.37676
-7.34963
-7.32739
-7.30904
-7.29357
-7.28032
-7.26884
-7.25877
-7.24994
-7.24215
-7.23516
-7.22875
-7.22263
-7.21648
-7.21017
-7.20374
-7.19724
-7.19077
-7.18447
-7.17855
-7.17331
-7.16915
-7.1663
-7.16492
-25.9786
-25.9269
-25.8057
-25.5779
-25.1881
-24.5684
-23.6601
-22.4529
-21.0214
-19.5031
-18.0049
-16.5911
-15.3044
-14.1536
-13.1318
-12.2369
-11.4617
-10.8021
-10.2611
-9.82752
-9.47575
-9.18259
-8.93555
-8.72543
-8.5456
-8.39324
-8.26451
-8.1549
-8.06069
-7.97621
-7.89537
-7.81586
-7.73974
-7.6688
-7.60391
-7.54586
-7.49429
-7.44843
-7.40809
-7.37296
-7.34299
-7.31862
-7.29937
-7.28392
-7.27102
-7.26002
-7.25047
-7.24208
-7.23475
-7.22832
-7.22256
-7.21727
-7.2121
-7.20666
-7.20078
-7.19459
-7.18818
-7.18165
-7.17515
-7.16891
-7.16327
-7.15881
-7.15577
-7.15434
-26.4059
-26.3727
-26.2862
-26.1032
-25.7552
-25.1517
-24.205
-22.8861
-21.2903
-19.6133
-17.9846
-16.4681
-15.1131
-13.9188
-12.866
-11.9532
-11.168
-10.5043
-9.97411
-9.56495
-9.24079
-8.97162
-8.74627
-8.55549
-8.39221
-8.2559
-8.14279
-8.04783
-7.96817
-7.89697
-7.8258
-7.75209
-7.68031
-7.61325
-7.5518
-7.49743
-7.44949
-7.40676
-7.36934
-7.33681
-7.30918
-7.28754
-7.27148
-7.25909
-7.24879
-7.24004
-7.23243
-7.22566
-7.2198
-7.21473
-7.21018
-7.20604
-7.20188
-7.19715
-7.19165
-7.18567
-7.17934
-7.17271
-7.16597
-7.15933
-7.1532
-7.14837
-7.14513
-7.14366
-26.8217
-26.8106
-26.7666
-26.6413
-26.3526
-25.7836
-24.8063
-23.36
-21.565
-19.7084
-17.941
-16.3155
-14.8953
-13.6636
-12.5815
-11.6541
-10.8608
-10.1905
-9.67342
-9.29534
-9.00405
-8.76023
-8.55764
-8.38686
-8.23954
-8.11939
-8.0223
-7.94198
-7.87771
-7.821
-7.75965
-7.69051
-7.62229
-7.55874
-7.50028
-7.44955
-7.40534
-7.36558
-7.33104
-7.30101
-7.27537
-7.25645
-7.24382
-7.23471
-7.22701
-7.22051
-7.21482
-7.20958
-7.20516
-7.20143
-7.19808
-7.19513
-7.19206
-7.18804
-7.18285
-7.17704
-7.17077
-7.164
-7.157
-7.14989
-7.14312
-7.13785
-7.13441
-7.13291
-27.2216
-27.2359
-27.2422
-27.1881
-26.9793
-26.4682
-25.4737
-23.8817
-21.8399
-19.7819
-17.8714
-16.1292
-14.6498
-13.3899
-12.2787
-11.3415
-10.5426
-9.86007
-9.35835
-9.02024
-8.76811
-8.54979
-8.37082
-8.22082
-8.08805
-7.98414
-7.90362
-7.83744
-7.78956
-7.74912
-7.69777
-7.63129
-7.56575
-7.50547
-7.44933
-7.40232
-7.36209
-7.32502
-7.29338
-7.26575
-7.24156
-7.22531
-7.21653
-7.21096
-7.20579
-7.20152
-7.19773
-7.19388
-7.19087
-7.18848
-7.18627
-7.18457
-7.18268
-7.17939
-7.1744
-7.16872
-7.16251
-7.15556
-7.14828
-7.14063
-7.13304
-7.12725
-7.12363
-7.12214
-27.6016
-27.6443
-27.7079
-27.7392
-27.6333
-27.2101
-26.2193
-24.4616
-22.106
-19.8257
-17.7743
-15.9037
-14.3755
-13.1012
-11.9577
-11.0175
-10.2171
-9.51142
-9.02746
-8.74148
-8.53618
-8.34131
-8.18679
-8.05876
-7.93784
-7.85046
-7.7874
-7.73405
-7.70379
-7.68218
-7.64117
-7.57436
-7.5106
-7.45362
-7.39883
-7.3558
-7.32001
-7.28512
-7.25649
-7.23127
-7.20765
-7.19405
-7.18969
-7.18803
-7.18518
-7.18313
-7.18124
-7.17857
-7.17693
-7.17591
-7.17473
-7.17435
-7.17382
-7.17128
-7.16629
-7.16071
-7.15459
-7.1474
-7.13986
-7.13161
-7.12295
-7.11655
-7.11282
-7.11137
-27.9579
-28.0314
-28.1588
-28.2888
-28.311
-28.0132
-27.0586
-25.1144
-22.3484
-19.8301
-17.6516
-15.6316
-14.0711
-12.8033
-11.6172
-10.6844
-9.88986
-9.14142
-8.67831
-8.46141
-8.31246
-8.13516
-8.00631
-7.90245
-7.78856
-7.71847
-7.6745
-7.63125
-7.62022
-7.62123
-7.59113
-7.5193
-7.4566
-7.40354
-7.34846
-7.30998
-7.27946
-7.24578
-7.2205
-7.19787
-7.17342
-7.16248
-7.16344
-7.16615
-7.1652
-7.16537
-7.16546
-7.16361
-7.16337
-7.16378
-7.16343
-7.16446
-7.16554
-7.16379
-7.15848
-7.153
-7.14704
-7.13952
-7.13178
-7.12289
-7.1128
-7.10571
-7.10196
-7.10064
-28.2877
-28.3935
-28.5897
-28.8309
-29.0076
-28.8803
-28.01
-25.8622
-22.5434
-19.7832
-17.51
-15.3024
-13.7359
-12.5057
-11.2533
-10.3449
-9.56968
-8.74456
-8.30725
-8.18312
-8.10253
-7.93062
-7.82981
-7.75429
-7.63909
-7.58818
-7.56626
-7.52798
-7.53837
-7.56745
-7.54941
-7.46514
-7.40339
-7.35579
-7.29766
-7.26481
-7.24101
-7.20676
-7.18554
-7.16605
-7.13852
-7.13036
-7.13792
-7.14561
-7.14577
-7.14824
-7.1505
-7.14892
-7.15014
-7.15213
-7.15226
-7.15484
-7.15788
-7.157
-7.15088
-7.14554
-7.13991
-7.13186
-7.12408
-7.11458
-7.1025
-7.09465
-7.09106
-7.08999
-28.5885
-28.7274
-28.9956
-29.3584
-29.7159
-29.812
-29.0957
-26.738
-22.6538
-19.6715
-17.365
-14.8994
-13.3688
-12.2237
-10.8581
-10.0017
-9.26991
-8.31166
-7.90919
-7.91075
-7.91406
-7.72514
-7.6574
-7.61784
-7.48721
-7.45944
-7.4648
-7.42241
-7.45739
-7.52235
-7.51843
-7.41014
-7.35041
-7.3114
-7.24547
-7.22021
-7.20549
-7.1675
-7.1517
-7.13654
-7.10232
-7.09731
-7.11331
-7.12684
-7.12671
-7.13173
-7.13655
-7.13432
-7.13721
-7.14107
-7.14108
-7.1454
-7.15094
-7.15106
-7.14335
-7.13828
-7.13325
-7.12433
-7.11678
-7.1068
-7.09191
-7.08328
-7.08012
-7.07946
-28.8586
-29.0304
-29.3718
-29.8637
-30.4264
-30.8057
-30.3405
-27.7921
-22.6217
-19.4797
-17.2456
-14.3967
-12.9691
-11.9811
-10.4162
-9.65765
-9.01115
-7.82782
-7.47757
-7.64979
-7.75768
-7.51336
-7.48883
-7.49856
-7.32894
-7.332
-7.37355
-7.3116
-7.37604
-7.48771
-7.50173
-7.35134
-7.29698
-7.27212
-7.19029
-7.17607
-7.17425
-7.127
-7.11908
-7.11052
-7.06386
-7.06289
-7.08991
-7.11042
-7.10766
-7.11579
-7.12391
-7.11954
-7.12455
-7.1308
-7.12966
-7.13605
-7.14479
-7.14618
-7.13564
-7.13116
-7.12719
-7.11678
-7.10993
-7.09979
-7.08083
-7.07149
-7.06916
-7.06913
-29.097
-29.3007
-29.7144
-30.3389
-31.1273
-31.8536
-31.7707
-29.1007
-22.3593
-19.1919
-17.201
-13.753
-12.5361
-11.8147
-9.90113
-9.31552
-8.82472
-7.26949
-7.00458
-7.40733
-7.64827
-7.28559
-7.32355
-7.40482
-7.15769
-7.20554
-7.29793
-7.19103
-7.29267
-7.46564
-7.50444
-7.28399
-7.24233
-7.2409
-7.12962
-7.13225
-7.1494
-7.08361
-7.08779
-7.08981
-7.02167
-7.02658
-7.0681
-7.0972
-7.08803
-7.10037
-7.11307
-7.10415
-7.11213
-7.12165
-7.11771
-7.12666
-7.13958
-7.14271
-7.12739
-7.12411
-7.12195
-7.10897
-7.10357
-7.09389
-7.06896
-7.05919
-7.05825
-7.05909
-29.3036
-29.537
-30.0198
-30.7763
-31.8044
-32.9415
-33.4109
-30.7787
-21.7347
-18.7927
-17.3099
-12.9036
-12.0696
-11.7799
-9.26956
-8.97818
-8.75744
-6.60024
-6.48187
-7.19222
-7.60669
-7.02581
-7.16081
-7.34936
-6.96295
-7.07977
-7.24629
-7.05375
-7.20533
-7.45851
-7.53406
-7.20076
-7.1857
-7.22236
-7.05954
-7.08868
-7.13415
-7.03466
-7.05793
-7.07719
-6.97351
-6.98786
-7.04838
-7.08841
-7.06686
-7.08542
-7.10482
-7.08751
-7.09993
-7.11414
-7.10477
-7.11711
-7.13548
-7.14116
-7.11809
-7.11708
-7.11791
-7.10056
-7.0978
-7.08967
-7.05588
-7.04631
-7.04747
-7.04947
-29.4786
-29.739
-30.2855
-31.1684
-32.4418
-34.0468
-35.2785
-32.9976
-20.5536
-18.2703
-17.6931
-11.7493
-11.5709
-11.9586
-8.45322
-8.64863
-8.87811
-5.76487
-5.90209
-7.01473
-7.66215
-6.70887
-6.99993
-7.35122
-6.72848
-6.95461
-7.23114
-6.88944
-7.11195
-7.46868
-7.60146
-7.09066
-7.12646
-7.22359
-6.97406
-7.04532
-7.13332
-6.976
-7.02966
-7.07677
-6.91606
-6.94626
-7.03138
-7.0858
-7.04268
-7.07094
-7.10032
-7.06866
-7.08798
-7.10911
-7.09021
-7.10729
-7.13266
-7.14233
-7.10698
-7.11009
-7.11568
-7.09102
-7.09268
-7.08796
-7.04095
-7.03284
-7.03697
-7.0404
-29.6229
-29.9068
-30.5099
-31.5091
-33.0225
-35.1377
-37.3747
-36.0098
-18.5348
-17.6202
-18.5284
-10.1405
-11.0439
-12.47
-7.34867
-8.33036
-9.28589
-4.68126
-5.26153
-6.88578
-7.85536
-6.29693
-6.84071
-7.4382
-6.42995
-6.83041
-7.27069
-6.68288
-7.0108
-7.4981
-7.72227
-6.93751
-7.06436
-7.25505
-6.8642
-7.00234
-7.15396
-6.90141
-7.00315
-7.09451
-6.84435
-6.9016
-7.01777
-7.09181
-7.01326
-7.05696
-7.10133
-7.04612
-7.07634
-7.10776
-7.0731
-7.09712
-7.13131
-7.14736
-7.09295
-7.10313
-7.11616
-7.07955
-7.08831
-7.08997
-7.02322
-7.01883
-7.02695
-7.03204
-29.738
-30.0416
-30.6927
-31.7935
-33.5297
-36.1721
-39.6709
-40.1809
-15.2782
-16.8511
-20.0708
-7.85797
-10.4975
-13.4831
-5.80387
-8.02797
-10.1209
-3.22972
-4.5645
-6.8151
-8.24269
-5.73479
-6.68409
-7.64994
-6.03173
-6.70839
-7.39083
-6.41203
-6.90122
-7.54748
-7.91866
-6.7181
-6.99982
-7.3317
-6.71681
-6.96015
-7.20607
-6.80175
-6.97865
-7.13884
-6.75117
-6.85415
-7.00816
-7.10981
-6.97538
-7.04355
-7.11029
-7.01775
-7.06514
-7.11178
-7.05206
-7.0866
-7.13151
-7.15783
-7.07438
-7.09627
-7.12061
-7.06497
-7.08472
-7.09738
-7.0013
-7.00448
-7.01762
-7.02449
-29.8256
-30.1447
-30.8342
-32.0187
-33.9482
-37.0994
-42.0898
-46.0316
-10.2245
-15.9931
-22.6756
-4.58734
-9.94893
-15.2329
-3.6014
-7.7483
-11.5775
-1.23903
-3.82973
-6.80821
-8.90155
-4.94414
-6.533
-8.04172
-5.4829
-6.59122
-7.62741
-6.04553
-6.78479
-7.61511
-8.22169
-6.39977
-6.93437
-7.47436
-6.51305
-6.91962
-7.30356
-6.66393
-6.95648
-7.2214
-6.62617
-6.80499
-7.00288
-7.14436
-6.92435
-7.03086
-7.13056
-6.98042
-7.05452
-7.12346
-7.02508
-7.07581
-7.13311
-7.17592
-7.04896
-7.08957
-7.13076
-7.04554
-7.08186
-7.11246
-6.97309
-6.99008
-7.00917
-7.01778
-29.8879
-30.2183
-30.9361
-32.1837
-34.2662
-37.8633
-44.4781
-54.2902
-2.60574
-15.1092
-26.8258
0.111482
-9.42871
-18.0395
-0.438179
-7.50197
-13.9198
1.53103
-3.09958
-6.86151
-9.93719
-3.81649
-6.39368
-8.68888
-4.71235
-6.48383
-8.02904
-5.53947
-6.66706
-7.69502
-8.6742
-5.93743
-6.87126
-7.71132
-6.2265
-6.88227
-7.46533
-6.46962
-6.93707
-7.35794
-6.4547
-6.75656
-7.00158
-7.20157
-6.85363
-7.01912
-7.16662
-6.92964
-7.04464
-7.14577
-6.98921
-7.06498
-7.13558
-7.20455
-7.01335
-7.08305
-7.14888
-7.01876
-7.07944
-7.13821
-6.93556
-6.97615
-7.00168
-7.01182
-29.927
-30.2646
-31.0008
-32.29
-34.4769
-38.4088
-46.572
-65.9571
8.61474
-14.3093
-33.1636
6.84069
-8.98708
-22.3301
4.09853
-7.30562
-17.5
5.41101
-2.45248
-6.95521
-11.4912
-2.20485
-6.27726
-9.69196
-3.62295
-6.39457
-8.66015
-4.83355
-6.55996
-7.7745
-9.33443
-5.27
-6.8162
-8.0801
-5.82096
-6.85064
-7.71647
-6.1938
-6.921
-7.56933
-6.21651
-6.71326
-7.0028
-7.28952
-6.75418
-7.00862
-7.22432
-6.85914
-7.03567
-7.18254
-6.94032
-7.05455
-7.1377
-7.2475
-6.96295
-7.07668
-7.17785
-6.98109
-7.07688
-7.17849
-6.88436
-6.96341
-6.99503
-7.00632
-29.9454
-30.2864
-31.0315
-32.3408
-34.5798
-38.6924
-47.9524
-82.3818
24.8118
-13.7694
-42.5248
16.406
-8.70287
-28.6634
10.558
-7.18544
-22.7803
10.8468
-2.01971
-7.04425
-13.7525
0.0853394
-6.20252
-11.183
-2.0855
-6.33736
-9.60533
-3.84712
-6.48578
-7.8316
-10.2812
-4.31713
-6.77918
-8.6303
-5.24872
-6.82947
-8.09054
-5.80387
-6.91002
-7.88367
-5.885
-6.68329
-7.00417
-7.4197
-6.61476
-7.0007
-7.31204
-6.76132
-7.02871
-7.23949
-6.87354
-7.04625
-7.13823
-7.31066
-6.89238
-7.07125
-7.22222
-6.92862
-7.07408
-7.23918
-6.81442
-6.95387
-6.98971
-7.00169
)
;

boundaryField
{
    left
    {
        type            calculated;
        value           nonuniform List<scalar> 
32
(
-21.5405
-21.6084
-21.7374
-21.9205
-22.1514
-22.4247
-22.7351
-23.0778
-23.4481
-23.8411
-24.2522
-24.6765
-25.1089
-25.5447
-25.9786
-26.4059
-26.8217
-27.2216
-27.6016
-27.9579
-28.2877
-28.5885
-28.8586
-29.097
-29.3036
-29.4786
-29.6229
-29.738
-29.8256
-29.8879
-29.927
-29.9454
)
;
    }
    right
    {
        type            calculated;
        value           nonuniform List<scalar> 
32
(
-7.26012
-7.25844
-7.25525
-7.25076
-7.24515
-7.23857
-7.23117
-7.22306
-7.21435
-7.20515
-7.19553
-7.18558
-7.17535
-7.16492
-7.15434
-7.14366
-7.13291
-7.12214
-7.11137
-7.10064
-7.08999
-7.07946
-7.06913
-7.05909
-7.04947
-7.0404
-7.03204
-7.02449
-7.01778
-7.01182
-7.00632
-7.00169
)
;
    }
    interface
    {
        type            calculated;
        value           nonuniform List<scalar> 
64
(
-29.9496
-30.2915
-31.0387
-32.3529
-34.6048
-38.7645
-48.4006
-91.9767
34.3498
-13.5911
-48.0791
22.0126
-8.61208
-32.4197
14.3466
-7.14838
-25.9108
14.0173
-1.87723
-7.08008
-15.0869
1.42764
-6.17851
-12.0693
-1.18643
-6.31897
-10.1684
-3.27233
-6.46052
-7.85117
-10.8375
-3.75798
-6.76679
-8.95783
-4.91421
-6.82232
-8.31313
-5.57582
-6.90615
-8.07063
-5.6922
-6.67299
-7.00457
-7.49707
-6.53355
-6.99767
-7.36468
-6.70458
-7.02598
-7.27391
-6.83507
-7.04299
-7.13799
-7.34822
-6.85138
-7.06898
-7.24899
-6.89823
-7.07268
-7.27555
-6.77412
-6.95028
-6.98754
-6.99976
)
;
    }
    bottom
    {
        type            calculated;
        value           nonuniform List<scalar> 
64
(
-21.5228
-21.4389
-21.2721
-21.0246
-20.6998
-20.3027
-19.8396
-19.3184
-18.7484
-18.1399
-17.5037
-16.8507
-16.1918
-15.5366
-14.8939
-14.2711
-13.6742
-13.1077
-12.5747
-12.0772
-11.616
-11.1909
-10.8011
-10.4452
-10.1213
-9.8275
-9.56154
-9.32119
-9.10427
-8.90865
-8.73233
-8.57348
-8.43041
-8.3016
-8.18568
-8.08143
-7.98776
-7.90368
-7.8283
-7.76082
-7.70049
-7.64665
-7.59866
-7.55594
-7.51796
-7.48422
-7.45427
-7.4277
-7.40412
-7.3832
-7.36465
-7.34818
-7.33359
-7.32066
-7.30925
-7.29921
-7.29045
-7.28289
-7.27647
-7.27115
-7.26691
-7.26373
-7.26162
-7.26056
)
;
    }
    defaultFaces
    {
        type            empty;
    }
}


// ************************************************************************* //
