/*--------------------------------*- C++ -*----------------------------------*\
| =========                 |                                                 |
| \\      /  F ield         | OpenFOAM: The Open Source CFD Toolbox           |
|  \\    /   O peration     | Version:  5.x                                   |
|   \\  /    A nd           | Web:      www.OpenFOAM.org                      |
|    \\/     M anipulation  |                                                 |
\*---------------------------------------------------------------------------*/
FoamFile
{
    version     2.0;
    format      ascii;
    class       volScalarField;
    location    "2.5";
    object      T;
}
// * * * * * * * * * * * * * * * * * * * * * * * * * * * * * * * * * * * * * //

dimensions      [0 0 0 1 0 0 0];

internalField   nonuniform List<scalar> 
2048
(
9.84537
9.84598
9.84718
9.84895
9.85129
9.85414
9.85747
9.86121
9.86531
9.86968
9.87425
9.87894
9.88367
9.88838
9.893
9.89747
9.90176
9.90583
9.90966
9.91323
9.91655
9.9196
9.9224
9.92496
9.92729
9.9294
9.93131
9.93303
9.93459
9.936
9.93726
9.93841
9.93943
9.94036
9.94119
9.94194
9.94261
9.94322
9.94376
9.94424
9.94468
9.94506
9.94541
9.94572
9.94599
9.94623
9.94645
9.94664
9.94681
9.94696
9.94709
9.94721
9.94731
9.94741
9.94749
9.94756
9.94762
9.94768
9.94772
9.94776
9.94779
9.94782
9.94783
9.94784
9.54239
9.54418
9.54773
9.55301
9.55994
9.56841
9.57829
9.58941
9.60158
9.61457
9.62815
9.64208
9.65613
9.6701
9.6838
9.69706
9.70976
9.72181
9.73314
9.74372
9.75351
9.76253
9.77081
9.77835
9.78522
9.79145
9.79708
9.80217
9.80677
9.81091
9.81465
9.81801
9.82104
9.82377
9.82622
9.82843
9.83041
9.83219
9.83379
9.83522
9.8365
9.83764
9.83865
9.83956
9.84036
9.84107
9.84171
9.84227
9.84277
9.84321
9.8436
9.84395
9.84426
9.84453
9.84478
9.84499
9.84517
9.84533
9.84547
9.84558
9.84567
9.84574
9.84579
9.84581
9.2513
9.25424
9.26009
9.26877
9.28016
9.29411
9.31039
9.32872
9.34878
9.37018
9.39255
9.41549
9.43862
9.46158
9.48408
9.50584
9.52667
9.5464
9.56493
9.58221
9.5982
9.61292
9.6264
9.63869
9.64986
9.65999
9.66915
9.67743
9.68489
9.69162
9.69768
9.70315
9.70807
9.7125
9.71648
9.72007
9.72329
9.72618
9.72877
9.73109
9.73317
9.73502
9.73666
9.73813
9.73943
9.74059
9.74162
9.74253
9.74334
9.74406
9.74469
9.74526
9.74576
9.7462
9.74659
9.74694
9.74724
9.7475
9.74772
9.74791
9.74805
9.74816
9.74824
9.74827
8.97092
8.97499
8.98307
8.99508
9.01086
9.0302
9.05279
9.07825
9.1061
9.13583
9.16688
9.19869
9.23074
9.26252
9.29361
9.32365
9.35235
9.3795
9.40497
9.42867
9.45058
9.47072
9.48914
9.50593
9.52117
9.53497
9.54745
9.55872
9.56887
9.57803
9.58627
9.5937
9.60039
9.60642
9.61184
9.61672
9.6211
9.62503
9.62856
9.63171
9.63453
9.63705
9.63929
9.64128
9.64305
9.64462
9.64601
9.64725
9.64834
9.64932
9.65018
9.65095
9.65163
9.65223
9.65276
9.65323
9.65364
9.654
9.6543
9.65455
9.65475
9.6549
9.655
9.65505
8.70024
8.70541
8.71569
8.73098
8.75111
8.77579
8.80466
8.83722
8.87285
8.91089
8.9506
8.99125
9.03213
9.07262
9.11215
9.15028
9.18664
9.22098
9.25313
9.28299
9.31055
9.33584
9.35894
9.37997
9.39903
9.41628
9.43187
9.44592
9.45859
9.47
9.48028
9.48954
9.49788
9.50539
9.51215
9.51823
9.52369
9.5286
9.53299
9.53692
9.54043
9.54356
9.54635
9.54883
9.55103
9.55298
9.55472
9.55625
9.55761
9.55882
9.55989
9.56085
9.56169
9.56244
9.56311
9.56369
9.5642
9.56465
9.56503
9.56534
9.5656
9.56579
9.56591
9.56598
8.43842
8.44467
8.45711
8.47565
8.50008
8.5301
8.56526
8.60496
8.64844
8.69484
8.74325
8.79275
8.84246
8.89159
8.93946
8.98554
9.02938
9.07069
9.10927
9.14504
9.17798
9.20816
9.23567
9.26067
9.28331
9.30378
9.32225
9.33889
9.35388
9.36738
9.37954
9.39049
9.40036
9.40924
9.41724
9.42444
9.4309
9.4367
9.4419
9.44655
9.4507
9.4544
9.4577
9.46062
9.46322
9.46552
9.46756
9.46937
9.47097
9.4724
9.47366
9.47478
9.47578
9.47667
9.47745
9.47814
9.47875
9.47928
9.47973
9.48011
9.48041
9.48064
9.48079
9.48086
8.18476
8.19206
8.20663
8.22837
8.25708
8.29245
8.33395
8.38087
8.4323
8.48719
8.54441
8.60284
8.6614
8.71915
8.7753
8.8292
8.88035
8.92843
8.97322
9.01464
9.0527
9.08749
9.11915
9.14787
9.17384
9.19728
9.21841
9.23744
9.25457
9.26999
9.28388
9.29639
9.30766
9.31781
9.32694
9.33517
9.34255
9.34918
9.35512
9.36043
9.36517
9.36939
9.37315
9.37648
9.37944
9.38206
9.38438
9.38644
9.38826
9.38988
9.39131
9.39259
9.39372
9.39473
9.39563
9.39642
9.39712
9.39773
9.39825
9.39868
9.39903
9.39929
9.39946
9.39955
7.93867
7.947
7.96365
7.98854
8.02151
8.06223
8.11014
8.1644
8.22395
8.28751
8.35371
8.42118
8.48867
8.55506
8.61943
8.68104
8.73936
8.79401
8.84478
8.8916
8.93451
8.97364
9.00918
9.04135
9.0704
9.09659
9.12017
9.14139
9.16047
9.17764
9.1931
9.20703
9.21958
9.23089
9.24108
9.25024
9.25848
9.26587
9.27248
9.2784
9.28367
9.28837
9.29254
9.29624
9.29952
9.30243
9.305
9.30728
9.3093
9.31109
9.31268
9.3141
9.31536
9.31648
9.31748
9.31836
9.31914
9.31982
9.32041
9.32089
9.32129
9.32158
9.32178
9.32188
7.69966
7.70899
7.72765
7.75564
7.79283
7.83892
7.89332
7.95509
8.02296
8.09541
8.17079
8.24748
8.32399
8.39905
8.47161
8.54085
8.60618
8.66721
8.72373
8.7757
8.82319
8.86639
8.90553
8.9409
8.97279
9.0015
9.02731
9.0505
9.07136
9.09012
9.10701
9.12223
9.13595
9.14832
9.15945
9.16948
9.17849
9.18657
9.19381
9.20027
9.20603
9.21116
9.21571
9.21974
9.22331
9.22647
9.22927
9.23174
9.23394
9.23588
9.23761
9.23915
9.24052
9.24174
9.24283
9.2438
9.24466
9.24541
9.24605
9.2466
9.24703
9.24736
9.24758
9.2477
7.46734
7.47762
7.49822
7.52921
7.57056
7.62202
7.68301
7.75247
7.82892
7.91054
7.99536
8.08146
8.16713
8.2509
8.33162
8.40839
8.48058
8.5478
8.60984
8.6667
8.7185
8.76549
8.80798
8.84629
8.88077
8.91176
8.93959
8.96458
8.98703
9.00722
9.0254
9.04178
9.05656
9.06988
9.08189
9.0927
9.10241
9.11113
9.11892
9.12589
9.13209
9.1376
9.14249
9.14681
9.15064
9.15402
9.15702
9.15967
9.16201
9.1641
9.16595
9.16759
9.16906
9.17037
9.17155
9.17259
9.17352
9.17434
9.17504
9.17563
9.17611
9.17647
9.17672
9.17684
7.2414
7.25256
7.27499
7.30886
7.35428
7.4111
7.47877
7.55614
7.64148
7.73259
7.82714
7.92289
8.01785
8.11038
8.19923
8.28343
8.36234
8.43555
8.50288
8.56436
8.6202
8.67071
8.71627
8.75726
8.7941
8.82715
8.8568
8.88339
8.90726
8.92873
8.94805
8.96548
8.98122
8.99541
9.0082
9.01972
9.03008
9.03936
9.04767
9.05508
9.06168
9.06753
9.07272
9.0773
9.08135
9.08493
9.0881
9.0909
9.09338
9.09558
9.09753
9.09927
9.10083
9.10222
9.10347
9.10459
9.10558
9.10646
9.10722
9.10786
9.10838
9.10877
9.10904
9.10917
7.02157
7.03354
7.05766
7.09426
7.14361
7.20575
7.2802
7.36572
7.46028
7.56127
7.6659
7.77153
7.87593
7.97728
8.07422
8.16576
8.25123
8.33022
8.4026
8.46844
8.52803
8.58178
8.63014
8.67357
8.71253
8.74743
8.77869
8.80671
8.83184
8.85442
8.87477
8.89314
8.90972
8.9247
8.93821
8.95037
8.9613
8.9711
8.97987
8.98768
8.99463
9.00079
9.00624
9.01105
9.0153
9.01905
9.02236
9.02529
9.02788
9.03018
9.03222
9.03405
9.03568
9.03714
9.03846
9.03964
9.04069
9.04163
9.04244
9.04313
9.04369
9.04412
9.04441
9.04455
6.80766
6.82035
6.846
6.88511
6.93821
7.00559
7.0869
7.18085
7.28504
7.39634
7.5114
7.6272
7.74118
7.85138
7.95637
8.05513
8.147
8.23158
8.30875
8.37867
8.44172
8.49843
8.54933
8.59495
8.63581
8.67235
8.70504
8.7343
8.76053
8.7841
8.80534
8.82454
8.84189
8.85758
8.87173
8.88447
8.89592
8.90619
8.91537
8.92354
8.93081
8.93724
8.94291
8.94792
8.95233
8.95622
8.95965
8.96269
8.96538
8.96776
8.96988
8.97177
8.97347
8.975
8.97637
8.97761
8.97872
8.97971
8.98058
8.98132
8.98192
8.98238
8.98269
8.98285
6.59954
6.61282
6.63979
6.68116
6.73777
6.81024
6.89849
7.00117
7.11547
7.23756
7.36347
7.48971
7.61341
7.73248
7.84546
7.95132
8.04941
8.13936
8.22108
8.29479
8.36102
8.4204
8.47358
8.52116
8.56369
8.60168
8.63562
8.66595
8.69312
8.71754
8.73957
8.7595
8.77754
8.79386
8.80859
8.82186
8.83378
8.84446
8.85401
8.86251
8.87005
8.87671
8.88258
8.88775
8.8923
8.8963
8.89984
8.90297
8.90574
8.90819
8.91037
8.91232
8.91407
8.91565
8.91708
8.91837
8.91954
8.92058
8.9215
8.92228
8.92293
8.92342
8.92376
8.92392
6.39708
6.41084
6.43888
6.48219
6.542
6.61938
6.7146
6.82635
6.95132
7.08476
7.22195
7.3589
7.49244
7.62037
7.74125
7.85407
7.95821
8.05334
8.13935
8.21655
8.28564
8.34741
8.40261
8.45192
8.49593
8.53519
8.57019
8.60145
8.62941
8.65454
8.67724
8.69782
8.71648
8.73338
8.74863
8.76237
8.77471
8.78576
8.79564
8.80442
8.81221
8.81908
8.82511
8.83041
8.83507
8.83917
8.84279
8.84599
8.84882
8.85133
8.85357
8.85556
8.85736
8.85898
8.86046
8.8618
8.86302
8.86411
8.86508
8.86591
8.8666
8.86713
8.86748
8.86766
6.20024
6.21432
6.24315
6.28803
6.35064
6.43265
6.53485
6.65607
6.79236
6.93776
7.08668
7.23463
7.3781
7.51486
7.64354
7.76315
7.87315
7.97325
8.06329
8.14367
8.2153
8.2792
8.33618
8.38699
8.43229
8.47263
8.50855
8.54057
8.56919
8.5949
8.61818
8.63933
8.65855
8.67596
8.69169
8.70585
8.71856
8.72995
8.74011
8.74916
8.75716
8.7642
8.77036
8.77577
8.78051
8.78469
8.78838
8.79163
8.79451
8.79707
8.79934
8.80137
8.8032
8.80486
8.80638
8.80777
8.80903
8.81018
8.81119
8.81207
8.81281
8.81337
8.81375
8.81394
6.00896
6.02321
6.05253
6.09854
6.16347
6.24973
6.35886
6.48998
6.63838
6.79644
6.95755
7.11678
7.27023
7.41572
7.55207
7.6783
7.79398
7.89887
7.99267
8.07589
8.14975
8.21549
8.27401
8.32612
8.37253
8.4138
8.45047
8.48312
8.51226
8.53844
8.56218
8.58385
8.60357
8.62145
8.63761
8.65215
8.66519
8.67687
8.6873
8.69656
8.70476
8.71194
8.71821
8.72369
8.7285
8.73274
8.73647
8.73977
8.74268
8.74527
8.74757
8.74963
8.75148
8.75318
8.75473
8.75616
8.75747
8.75867
8.75973
8.76066
8.76144
8.76204
8.76244
8.76264
5.82325
5.83749
5.86695
5.9136
5.98028
6.07029
6.18622
6.32775
6.48924
6.66072
6.83446
7.00524
7.16867
7.32273
7.46662
7.59927
7.72043
7.82995
7.92725
8.01295
8.08869
8.15601
8.21585
8.26906
8.31644
8.35847
8.39575
8.42891
8.45843
8.48495
8.50908
8.53121
8.55139
8.56969
8.58624
8.60112
8.61445
8.6264
8.63705
8.64651
8.65488
8.66218
8.66853
8.67406
8.67891
8.68318
8.68695
8.69028
8.69322
8.69583
8.69815
8.70022
8.70209
8.70381
8.7054
8.70687
8.70823
8.70947
8.71058
8.71156
8.71239
8.71302
8.71345
8.71366
5.64308
5.65714
5.68638
5.73313
5.80088
5.89402
6.01652
6.16902
6.34483
6.53052
6.7173
6.89993
7.07325
7.23567
7.38696
7.52579
7.65221
7.76627
7.86682
7.95459
8.03184
8.10052
8.16145
8.21558
8.26378
8.30644
8.3442
8.37775
8.40753
8.43425
8.45869
8.48125
8.50185
8.52054
8.53746
8.55263
8.56621
8.5784
8.58925
8.59888
8.6074
8.61481
8.62119
8.62675
8.63163
8.63592
8.63971
8.64306
8.64601
8.64863
8.65096
8.65304
8.65492
8.65666
8.65829
8.65979
8.66119
8.66247
8.66364
8.66467
8.66555
8.66622
8.66668
8.6669
5.46848
5.48217
5.51083
5.55709
5.62514
5.72061
5.84929
6.01339
6.2051
6.40586
6.60595
6.80076
6.98383
7.15427
7.31286
7.45759
7.58904
7.70762
7.81116
7.90054
7.97892
8.04876
8.11058
8.16544
8.21437
8.25753
8.29563
8.32947
8.35939
8.38618
8.41085
8.43383
8.45483
8.47387
8.49112
8.50655
8.52035
8.53274
8.54376
8.55355
8.56222
8.5697
8.5761
8.58165
8.58655
8.59084
8.59463
8.598
8.60096
8.60358
8.60591
8.60799
8.60987
8.61162
8.61328
8.61482
8.61625
8.61758
8.6188
8.61988
8.62082
8.62154
8.62201
8.62224
5.29944
5.3126
5.34029
5.38545
5.45295
5.54977
5.68401
5.86039
6.07013
6.28675
6.50029
6.70773
6.90023
7.07824
7.2441
7.3944
7.53059
7.65384
7.76009
7.85054
7.92963
8.00049
8.063
8.11842
8.16802
8.21154
8.24984
8.28392
8.31384
8.34056
8.36537
8.38881
8.41018
8.42952
8.44712
8.46276
8.47672
8.48932
8.50048
8.5104
8.51921
8.52675
8.53313
8.53865
8.54355
8.54784
8.55162
8.55499
8.55795
8.56057
8.5629
8.56497
8.56684
8.5686
8.57029
8.57186
8.57333
8.57471
8.57596
8.57711
8.57811
8.57887
8.57937
8.57961
5.13599
5.14845
5.1748
5.21824
5.28424
5.38123
5.52015
5.70947
5.94012
6.17329
6.4001
6.62083
6.82231
7.00723
7.18052
7.33594
7.4765
7.60477
7.71345
7.80431
7.88365
7.9555
8.01851
8.07427
8.12455
8.16831
8.20667
8.24096
8.27076
8.29722
8.3221
8.34607
8.36779
8.38739
8.40533
8.42115
8.43522
8.44802
8.45929
8.46931
8.4783
8.48587
8.49219
8.49765
8.50254
8.50681
8.51057
8.51396
8.51691
8.5195
8.52183
8.52388
8.52573
8.52749
8.52922
8.53082
8.53232
8.53375
8.53505
8.53625
8.53733
8.53814
8.53866
8.5389
4.97811
4.98971
5.01439
5.05549
5.119
5.21477
5.35709
5.55994
5.81548
6.0656
6.30507
6.54018
6.7499
6.9408
7.12199
7.28193
7.42635
7.56035
7.67113
7.76158
7.84064
7.91362
7.9769
8.03277
8.08383
8.12767
8.16592
8.20047
8.23
8.25599
8.28085
8.30551
8.32755
8.34733
8.36566
8.38159
8.39572
8.40874
8.42008
8.43017
8.43937
8.44697
8.45317
8.45854
8.46343
8.46767
8.4714
8.47479
8.47772
8.48029
8.48263
8.48464
8.48645
8.48821
8.48999
8.49162
8.49314
8.49462
8.49596
8.49722
8.49839
8.49925
8.49978
8.50002
4.8258
4.83642
4.85911
4.89728
4.95726
5.05021
5.19416
5.41086
5.69693
5.96386
6.2147
6.46601
6.68285
6.87841
7.06849
7.23208
7.37961
7.52057
7.63302
7.72205
7.80024
7.87471
7.93799
7.99365
8.04575
8.08948
8.1274
8.16235
8.19146
8.21672
8.24145
8.26704
8.28935
8.30921
8.32803
8.344
8.3581
8.3714
8.38276
8.39287
8.40236
8.40995
8.41597
8.42122
8.42614
8.43032
8.43399
8.43742
8.44032
8.44285
8.44519
8.44717
8.44892
8.45067
8.45251
8.45416
8.45571
8.45724
8.45862
8.45993
8.46121
8.46212
8.46266
8.46291
4.67904
4.68855
4.70898
4.74368
4.79911
4.88745
5.03068
5.26097
5.5856
5.86828
6.12825
6.39873
6.62099
6.81934
7.02015
7.18613
7.33562
7.48555
7.59907
7.68541
7.76201
7.8387
7.9016
7.95664
8.01024
8.05359
8.09089
8.12654
8.15503
8.17925
8.20371
8.23062
8.25309
8.2729
8.29237
8.30827
8.32223
8.33592
8.34722
8.35729
8.36719
8.37473
8.38051
8.38558
8.39057
8.39468
8.39828
8.40176
8.40461
8.40708
8.40946
8.41138
8.41306
8.41479
8.41672
8.41839
8.41993
8.42154
8.42294
8.42429
8.42572
8.42668
8.42722
8.42746
4.53777
4.54609
4.56405
4.5948
4.6447
4.72652
4.86593
5.10852
5.48319
5.77908
6.04457
6.33906
6.56415
6.76262
6.9773
7.14379
7.29352
7.45561
7.56924
7.65133
7.72547
7.80562
7.86758
7.9214
7.97728
8.01987
8.05616
8.093
8.12062
8.14341
8.1674
8.19625
8.2187
8.23822
8.25863
8.27431
8.28797
8.30225
8.31338
8.3233
8.3338
8.34125
8.34668
8.35154
8.35667
8.36067
8.36415
8.36775
8.37053
8.37292
8.37535
8.37721
8.37878
8.38047
8.38254
8.3842
8.38574
8.38744
8.38885
8.39024
8.39185
8.39285
8.39339
8.39361
4.40195
4.40902
4.42433
4.45074
4.49422
4.56753
4.69927
4.95106
5.39223
5.69648
5.962
6.28814
6.51217
6.70696
6.94059
7.1048
7.25219
7.43127
7.54352
7.61945
7.69
7.7756
7.83579
7.88754
7.94696
7.9882
8.02292
8.06176
8.08817
8.10905
8.13227
8.16396
8.1861
8.20499
8.2268
8.24204
8.25517
8.27034
8.28114
8.29077
8.30217
8.30943
8.31441
8.31898
8.32437
8.32821
8.33153
8.33532
8.33798
8.34026
8.34281
8.34458
8.34601
8.34765
8.34991
8.35155
8.35304
8.35488
8.35627
8.35767
8.35953
8.36057
8.36108
8.36128
4.27151
4.27728
4.28982
4.3116
4.34792
4.41078
4.5302
4.78518
5.31633
5.62062
5.87813
6.24772
6.46483
6.6506
6.91111
7.06888
7.21011
7.4134
7.52188
7.58942
7.65488
7.74897
7.80608
7.85456
7.91945
7.95846
7.99081
8.0329
8.05759
8.07601
8.098
8.13387
8.1552
8.17301
8.19691
8.21137
8.22367
8.2402
8.25042
8.25953
8.27227
8.27921
8.2836
8.28779
8.29362
8.29723
8.30032
8.30441
8.30692
8.30902
8.31177
8.31341
8.31468
8.31623
8.31878
8.32035
8.32177
8.3238
8.32513
8.3265
8.32872
8.32976
8.33022
8.3304
4.14634
4.1508
4.16051
4.17747
4.20605
4.2567
4.3585
4.60614
5.26052
5.55155
5.78966
6.22034
6.42188
6.59119
6.89053
7.03576
7.1653
7.40334
7.50422
7.56087
7.6192
7.72624
7.77832
7.82181
7.89507
7.93053
7.95941
8.00661
8.02883
8.04417
8.06422
8.10618
8.12592
8.14198
8.16905
8.18221
8.19324
8.21186
8.22115
8.22941
8.24413
8.25051
8.25417
8.25786
8.2644
8.26766
8.27042
8.27499
8.27725
8.27913
8.28219
8.28366
8.28471
8.28612
8.2891
8.29055
8.29184
8.29415
8.29537
8.29666
8.29935
8.30036
8.30075
8.3009
4.02635
4.0295
4.03638
4.04843
4.0689
4.1059
4.18445
4.40743
5.23172
5.48908
5.69204
6.20966
6.383
6.52559
6.88127
7.00516
7.11511
7.40301
7.49033
7.53346
7.58179
7.70824
7.75236
7.7885
7.87432
7.90427
7.92815
7.98317
8.00181
8.01342
8.03045
8.08123
8.09819
8.11159
8.14336
8.15449
8.16364
8.18541
8.19324
8.20018
8.21779
8.22327
8.22604
8.22907
8.2367
8.23944
8.24171
8.24703
8.24893
8.25047
8.25402
8.25525
8.25605
8.25724
8.26084
8.26208
8.26316
8.26589
8.26692
8.26804
8.2714
8.2723
8.27261
8.27271
3.91142
3.91328
3.91735
3.92451
3.93673
3.95914
4.00909
4.18025
5.23924
5.43271
5.57925
6.22073
6.34772
6.44969
6.88676
6.97677
7.05613
7.41509
7.47979
7.50694
7.5412
7.69613
7.72805
7.75358
7.85795
7.87955
7.89634
7.96302
7.97642
7.9837
7.99609
8.05947
8.07191
8.0814
8.12008
8.12811
8.13458
8.16099
8.16662
8.17159
8.19337
8.1974
8.19913
8.20126
8.21052
8.21249
8.21409
8.22052
8.22188
8.22296
8.22725
8.22813
8.22862
8.2295
8.23397
8.23488
8.23565
8.23898
8.23972
8.24055
8.24483
8.24552
8.24572
8.24578
3.80141
3.80202
3.80336
3.80572
3.80977
3.81724
3.83454
3.91281
5.29536
5.38146
5.44341
6.26041
6.31541
6.35817
6.91163
6.95024
6.98393
7.4433
7.47185
7.48119
7.49557
7.69151
7.70517
7.71575
7.84698
7.8562
7.86312
7.94677
7.9525
7.95499
7.96036
8.04155
8.04695
8.05089
8.09956
8.10299
8.10567
8.13883
8.14122
8.14331
8.17104
8.1728
8.1734
8.17428
8.18592
8.18675
8.18741
8.19547
8.19604
8.19649
8.20185
8.20222
8.20239
8.20277
8.20849
8.20889
8.20921
8.21341
8.21373
8.21409
8.21964
8.21996
8.22003
8.22005
)
;

boundaryField
{
    left
    {
        type            zeroGradient;
    }
    right
    {
        type            zeroGradient;
    }
    interface
    {
        type            fixedValue;
        value           nonuniform List<scalar> 
64
(
3.74761
3.74761
3.74761
3.74761
3.74761
3.74761
3.74761
3.74761
5.35705
5.35705
5.35705
6.29995
6.29995
6.29995
6.9374
6.9374
6.9374
7.46847
7.46847
7.46847
7.46847
7.69407
7.69407
7.69407
7.84485
7.84485
7.84485
7.94089
7.94089
7.94089
7.94089
8.0348
8.0348
8.0348
8.09074
8.09074
8.09074
8.12881
8.12881
8.12881
8.16082
8.16082
8.16082
8.16082
8.17419
8.17419
8.17419
8.18342
8.18342
8.18342
8.18957
8.18957
8.18957
8.18957
8.19619
8.19619
8.19619
8.20102
8.20102
8.20102
8.20748
8.20748
8.20748
8.20748
)
;
    }
    bottom
    {
        type            fixedValue;
        value           uniform 10;
    }
    defaultFaces
    {
        type            empty;
    }
}


// ************************************************************************* //
