/*--------------------------------*- C++ -*----------------------------------*\
| =========                 |                                                 |
| \\      /  F ield         | OpenFOAM: The Open Source CFD Toolbox           |
|  \\    /   O peration     | Version:  5.x                                   |
|   \\  /    A nd           | Web:      www.OpenFOAM.org                      |
|    \\/     M anipulation  |                                                 |
\*---------------------------------------------------------------------------*/
FoamFile
{
    version     2.0;
    format      ascii;
    class       volScalarField;
    location    "10.3";
    object      gradTx;
}
// * * * * * * * * * * * * * * * * * * * * * * * * * * * * * * * * * * * * * //

dimensions      [0 -1 0 1 0 0 0];

internalField   nonuniform List<scalar> 
2048
(
0.0222141
0.0663955
0.109814
0.151892
0.191971
0.229324
0.263189
0.292838
0.317647
0.337166
0.351165
0.35965
0.362851
0.361187
0.355221
0.345603
0.333029
0.318195
0.301766
0.28435
0.266477
0.248591
0.23105
0.214121
0.197998
0.182803
0.168606
0.155426
0.143245
0.132017
0.121675
0.112139
0.103324
0.0951474
0.0875352
0.0804224
0.0737561
0.0674952
0.0616091
0.0560764
0.0508829
0.0460194
0.0414796
0.0372583
0.0333493
0.0297446
0.0264342
0.0234057
0.0206452
0.0181373
0.0158656
0.0138136
0.0119644
0.0103012
0.00880726
0.0074663
0.00626227
0.00517938
0.00420199
0.00331444
0.00250087
0.00174513
0.00103072
0.000340884
0.0658749
0.196914
0.325748
0.450685
0.569773
0.680826
0.781544
0.86971
0.943425
1.00132
1.0427
1.06759
1.07671
1.07133
1.05315
1.02414
0.986392
0.941989
0.892918
0.840991
0.787785
0.734619
0.682538
0.632334
0.584565
0.539591
0.497603
0.458653
0.422682
0.389546
0.359038
0.330916
0.304924
0.280815
0.258365
0.237381
0.217708
0.199224
0.181841
0.165497
0.150151
0.135778
0.122362
0.109888
0.098338
0.08769
0.0779137
0.0689724
0.0608243
0.0534235
0.0467218
0.0406695
0.0352166
0.0303134
0.0259104
0.0219594
0.018413
0.0152246
0.0123481
0.00973735
0.00734555
0.00512489
0.00302643
0.00100079
0.108164
0.323392
0.535185
0.740834
0.93713
1.1204
1.28672
1.43228
1.5538
1.64892
1.71646
1.7565
1.77031
1.76008
1.72874
1.67962
1.61621
1.54203
1.46038
1.37426
1.28627
1.19857
1.11286
1.03041
0.952113
0.878517
0.809914
0.746365
0.687755
0.633825
0.584217
0.538515
0.496284
0.457108
0.420614
0.386485
0.354465
0.324361
0.29603
0.269377
0.244342
0.220889
0.198996
0.178642
0.159804
0.142443
0.126511
0.111948
0.0986821
0.0866389
0.0757383
0.0658985
0.0570373
0.0490729
0.0419246
0.0355135
0.0297623
0.0245952
0.0199375
0.0157142
0.0118492
0.00826444
0.00487897
0.00161287
0.149364
0.446715
0.739714
1.02476
1.29743
1.55247
1.78417
1.98688
2.15574
2.28727
2.37977
2.43344
2.45019
2.43333
2.3871
2.3163
2.22595
2.121
2.00611
1.88549
1.76275
1.64085
1.52211
1.40822
1.30033
1.19917
1.10507
1.01808
0.937998
0.864432
0.796847
0.734634
0.677163
0.623838
0.574134
0.527609
0.483918
0.442799
0.404066
0.367598
0.333321
0.3012
0.271214
0.243344
0.217561
0.193815
0.172039
0.152147
0.134041
0.117613
0.102754
0.0893489
0.0772849
0.0664489
0.05673
0.0480196
0.0402122
0.0332048
0.0268955
0.0211824
0.0159622
0.011128
0.00656674
0.00216983
0.189632
0.567399
0.940325
1.30411
1.65312
1.98042
2.27819
2.53864
2.75498
2.92239
3.03863
3.10411
3.12161
3.09571
3.03219
2.9375
2.81825
2.68094
2.53161
2.3757
2.21785
2.0618
1.9104
1.7657
1.62907
1.50133
1.38282
1.27354
1.17318
1.08117
0.996781
0.919178
0.84751
0.780989
0.718929
0.660772
0.606085
0.55455
0.505947
0.460138
0.417049
0.376652
0.338938
0.3039
0.271506
0.241697
0.214387
0.189461
0.166793
0.146244
0.12767
0.110928
0.0958723
0.0823605
0.0702517
0.0594093
0.0497008
0.0409976
0.0331731
0.0261007
0.0196512
0.0136911
0.00807484
0.00266673
0.229005
0.685603
1.13745
1.57978
2.00581
2.40671
2.7722
3.09178
3.35629
3.55933
3.69804
3.77321
3.78876
3.75087
3.66711
3.54574
3.39511
3.22333
3.03793
2.84561
2.65202
2.46164
2.27782
2.10288
1.9383
1.78493
1.64309
1.51268
1.39324
1.28402
1.18405
1.09222
1.00743
0.928688
0.855136
0.786106
0.721089
0.659721
0.601759
0.547059
0.49556
0.447253
0.402157
0.36028
0.321598
0.286043
0.253505
0.223841
0.19689
0.172482
0.15044
0.13059
0.112756
0.096767
0.0824518
0.0696469
0.0581946
0.0479428
0.0387427
0.0304448
0.0228963
0.0159386
0.00939393
0.00310038
0.267404
0.801152
1.33099
1.85201
2.35638
2.8331
3.26889
3.64985
3.96383
4.20244
4.36221
4.44459
4.455
4.40163
4.29416
4.14285
3.95792
3.7492
3.52576
3.29563
3.06549
2.84054
2.62449
2.41983
2.22808
2.05004
1.88593
1.73555
1.59828
1.47312
1.35882
1.25397
1.15717
1.06718
0.982998
0.903838
0.829135
0.758493
0.691658
0.62849
0.568952
0.513072
0.46091
0.412507
0.36785
0.326858
0.289396
0.255286
0.22433
0.196323
0.171058
0.148328
0.12793
0.10966
0.093322
0.0787236
0.0656838
0.0540299
0.043593
0.0342038
0.0256877
0.017863
0.0105191
0.00346894
0.304635
0.913538
1.52032
2.1204
2.70497
3.26064
3.77036
4.21592
4.58125
4.85554
5.03477
5.1214
5.12296
5.0501
4.91499
4.7301
4.50764
4.2592
3.99549
3.72597
3.45838
3.19855
2.95048
2.71667
2.49856
2.2968
2.11152
1.94234
1.78848
1.6487
1.52138
1.40475
1.29706
1.19682
1.10284
1.01427
0.930494
0.851108
0.775853
0.704608
0.637367
0.574217
0.51528
0.460643
0.410308
0.364184
0.322099
0.283833
0.249148
0.2178
0.189551
0.164166
0.141412
0.121059
0.102878
0.0866518
0.0721775
0.059264
0.0477262
0.0373777
0.0280241
0.0194626
0.0114487
0.00377163
0.340402
1.02195
1.70435
2.38391
3.05111
3.6898
4.27829
4.79271
5.21193
5.52213
5.71886
5.80625
5.79461
5.69775
5.53068
5.30828
5.0448
4.75365
4.44726
4.13664
3.83066
3.53572
3.25591
2.9936
2.74998
2.5255
2.32011
2.13332
1.96415
1.81108
1.67211
1.54498
1.42755
1.31801
1.21505
1.11775
1.02548
0.937847
0.854597
0.775629
0.700985
0.630829
0.565374
0.504773
0.449052
0.398095
0.351686
0.309552
0.271407
0.23697
0.205971
0.17815
0.153247
0.131001
0.111154
0.093461
0.0776991
0.0636628
0.0511543
0.0399742
0.02991
0.0207401
0.012184
0.0040084
0.374308
1.12526
1.88147
2.64089
3.39363
4.12049
4.79396
5.38277
5.85912
6.20546
6.41727
6.50119
6.47136
6.34548
6.14181
5.87779
5.56966
5.23263
4.88098
4.52747
4.1822
3.85201
3.5409
3.25085
2.98266
2.73647
2.51206
2.30882
2.12562
1.96066
1.81146
1.67517
1.54913
1.43125
1.32008
1.21467
1.11445
1.01902
0.928169
0.841798
0.760009
0.683067
0.611316
0.545005
0.484179
0.428688
0.378253
0.332537
0.291197
0.253915
0.220393
0.190347
0.163494
0.139542
0.1182
0.0991942
0.0822838
0.0672534
0.053897
0.0420072
0.0313545
0.0217017
0.0127281
0.00417977
0.40587
1.22211
2.04967
2.88911
3.73075
4.55209
5.31839
5.98863
6.52608
6.90867
7.13242
7.2078
7.15404
6.99364
6.74854
6.43871
6.08226
5.69607
5.29642
4.89816
4.51278
4.14742
3.80564
3.48878
3.19703
2.93016
2.68779
2.46924
2.27329
2.09788
1.93994
1.79587
1.66238
1.53706
1.41838
1.30544
1.19774
1.09496
0.996867
0.903383
0.814662
0.731105
0.653242
0.581451
0.5158
0.456077
0.401918
0.352902
0.308625
0.268732
0.232901
0.200833
0.172222
0.146747
0.124076
0.103905
0.0859753
0.0700699
0.0559797
0.0434948
0.0323701
0.0223557
0.0130859
0.0042867
0.434535
1.3109
2.20649
3.12572
4.06
4.98342
5.85238
6.61289
7.21624
7.63483
7.86646
7.92719
7.84292
7.6421
7.35063
6.99086
6.58249
6.1438
5.69322
5.24828
4.82214
4.42194
4.05037
3.70781
3.39361
3.1071
2.84777
2.61499
2.40756
2.22319
2.05812
1.90771
1.76791
1.636
1.51043
1.39046
1.27574
1.166
1.061
0.960668
0.865182
0.775121
0.691285
0.614232
0.544037
0.480391
0.422812
0.370778
0.323813
0.281531
0.243594
0.209694
0.179512
0.152692
0.128853
0.107654
0.0888236
0.0721511
0.0574309
0.0444577
0.032971
0.0227125
0.0132632
0.00433053
0.459704
1.38985
2.34914
3.34732
4.37821
5.41273
6.39654
7.25846
7.93336
8.38707
8.62126
8.65997
8.53771
8.29023
7.94752
7.5339
7.07022
6.57563
6.07092
5.57728
5.10995
4.6756
4.27543
3.90848
3.57304
3.26788
2.99255
2.74654
2.52882
2.33705
2.16659
2.01139
1.86639
1.72866
1.59674
1.47014
1.3488
1.23247
1.1209
1.01395
0.911818
0.815291
0.725569
0.643463
0.569019
0.501769
0.441082
0.386308
0.336892
0.292431
0.252576
0.217021
0.185447
0.157458
0.132608
0.110508
0.0908832
0.073539
0.0582814
0.0449184
0.033173
0.0227833
0.0132675
0.00431304
0.480755
1.45709
2.47456
3.55
4.68147
5.83762
6.95137
7.92869
8.68167
9.16848
9.39832
9.40621
9.23753
8.93696
8.53835
8.06734
7.54536
6.99143
6.42898
5.88445
5.37584
4.9085
4.48125
4.09148
3.73606
3.41321
3.12271
2.86433
2.63744
2.43992
2.26601
2.10764
1.95852
1.81563
1.67777
1.54486
1.41723
1.2947
1.17687
1.06355
0.954833
0.851783
0.756204
0.669254
0.590877
0.52036
0.456886
0.399646
0.348004
0.301555
0.259952
0.222906
0.190112
0.161132
0.135424
0.112541
0.0922111
0.0742771
0.0585628
0.0448995
0.0329923
0.0225804
0.0131069
0.00423656
0.497078
1.51075
2.5795
3.72932
4.96507
6.25489
7.51721
8.62762
9.46607
9.98217
10.1988
10.1655
9.94085
9.58075
9.12206
8.59064
8.00799
7.39125
6.76675
6.1689
5.61943
5.12085
4.66838
4.25758
3.88353
3.54381
3.23888
2.96882
2.73372
2.53217
2.35705
2.1973
2.04501
1.89749
1.75397
1.61494
1.48137
1.35299
1.22922
1.10979
0.994505
0.884752
0.783271
0.691704
0.60975
0.53632
0.470391
0.410958
0.357291
0.309029
0.265833
0.227437
0.19359
0.163803
0.13739
0.113827
0.0928652
0.0744092
0.0583065
0.0444237
0.0324454
0.0221164
0.0127907
0.00410413
0.508112
1.54901
2.66067
3.88048
5.22349
6.66042
8.09422
9.3603
10.2924
10.8311
11.0234
10.9368
10.6454
10.2197
9.69745
9.10316
8.45844
7.77542
7.08344
6.42948
5.84033
5.313
4.83748
4.40773
4.01644
3.66047
3.34172
3.06047
2.81786
2.61415
2.44049
2.28127
2.12659
1.97482
1.82579
1.68068
1.54147
1.40764
1.27827
1.15302
1.03114
0.914329
0.806813
0.710903
0.625786
0.549813
0.481774
0.420414
0.364899
0.314982
0.270325
0.230697
0.19596
0.165562
0.138601
0.114443
0.0929028
0.0739779
0.0575433
0.0435124
0.031548
0.0214044
0.0123293
0.00391967
0.51338
1.57028
2.71491
3.99841
5.45027
7.04891
8.68226
10.1332
11.1677
11.7178
11.8722
11.7187
11.3483
10.8516
10.2633
9.60418
8.89748
8.14472
7.37807
6.66464
6.0382
5.48556
4.98928
4.54299
4.13589
3.76399
3.43195
3.13977
2.8899
2.68604
2.51716
2.36059
2.20397
2.04819
1.89362
1.74226
1.59778
1.45894
1.32429
1.19365
1.06507
0.940607
0.826817
0.726934
0.639146
0.561004
0.49122
0.428196
0.37097
0.31954
0.273537
0.232762
0.197291
0.166504
0.139155
0.114467
0.092379
0.0730244
0.0563023
0.0421851
0.0303156
0.0204579
0.0117343
0.00368817
0.512525
1.57324
2.73932
4.07789
5.6381
7.41355
9.28065
10.9546
12.1004
12.644
12.7448
12.5092
12.0453
11.474
10.8183
10.0927
9.32643
8.50062
7.64928
6.87231
6.21283
5.63941
5.12456
4.66459
4.24317
3.85509
3.51036
3.20723
2.9497
2.74787
2.58804
2.43646
2.2778
2.11812
1.95784
1.7998
1.65052
1.50717
1.3675
1.23209
1.09671
0.96363
0.843199
0.739877
0.650019
0.570056
0.498922
0.434493
0.375635
0.322828
0.27558
0.233692
0.19764
0.166728
0.139165
0.113975
0.0913447
0.0715877
0.0546116
0.0404594
0.0287622
0.0192913
0.0110188
0.00341574
0.505343
1.55699
2.73145
4.11384
5.77879
7.7457
9.88778
11.8356
13.1012
13.6098
13.64
13.3065
12.7313
12.0844
11.3617
10.5672
9.74739
8.84558
7.89518
7.04966
6.36426
5.77596
5.244
4.77391
4.33972
3.93437
3.57782
3.2635
2.99681
2.79941
2.65433
2.51028
2.34858
2.18509
2.01886
1.85324
1.69988
1.55264
1.40806
1.26885
1.12656
0.983365
0.855773
0.749825
0.65863
0.577119
0.505081
0.439508
0.379007
0.32497
0.276566
0.23353
0.197047
0.166338
0.138749
0.113042
0.0898447
0.0697043
0.052498
0.03835
0.0269006
0.0179201
0.0101971
0.00310972
0.491801
1.52112
2.68954
4.10151
5.86336
8.03436
10.5005
12.7909
14.1835
14.6125
14.5561
14.1089
13.3992
12.6806
11.8932
11.0252
10.1635
9.18348
8.11299
7.19278
6.49302
5.89721
5.34798
4.87251
4.42728
4.00212
3.63535
3.30943
3.0304
2.84004
2.71756
2.5838
2.41657
2.24959
2.07711
1.90231
1.74608
1.59567
1.44595
1.30451
1.15525
0.999663
0.86422
0.756902
0.665268
0.582308
0.509907
0.443467
0.38117
0.32609
0.276626
0.232297
0.195529
0.165452
0.138047
0.111731
0.0879154
0.0674089
0.0499876
0.0358683
0.0247412
0.0163614
0.00928586
0.00277854
0.472052
1.46575
2.61261
4.03684
5.88235
8.2658
11.1129
13.8402
15.364
15.6447
15.4913
14.916
14.0392
13.2612
12.4137
11.4621
10.5793
9.52029
8.29855
7.2963
6.60043
6.00612
5.43626
4.96223
4.50797
4.05807
3.68419
3.34625
3.04912
2.86863
2.77973
2.65916
2.48155
2.31211
2.13316
1.94643
1.78937
1.63673
1.48094
1.3398
1.18364
1.01221
0.868045
0.761301
0.670309
0.585676
0.513628
0.446626
0.382152
0.326314
0.275908
0.229978
0.193068
0.164202
0.137218
0.110096
0.0855826
0.0647359
0.0471068
0.0330216
0.0222916
0.0146352
0.00830363
0.0024316
0.446432
1.39159
2.50067
3.91677
5.82611
8.42303
11.7151
15.01
16.6649
16.6919
16.4439
15.7294
14.6375
13.8259
12.9258
11.8705
11.0012
9.86487
8.44564
7.35293
6.68909
6.10688
5.50744
5.04529
4.58454
4.10107
3.72592
3.37583
3.0509
2.88331
2.84356
2.73912
2.54256
2.37321
2.18784
1.98453
1.83016
1.67643
1.51237
1.37564
1.2129
1.02044
0.866532
0.763334
0.674255
0.587156
0.516496
0.449298
0.381903
0.325782
0.274604
0.226518
0.189607
0.162747
0.136452
0.108166
0.0828591
0.061721
0.0438833
0.0298126
0.0195556
0.0127649
0.00727158
0.00207898
0.415451
1.29992
2.35478
3.73962
5.68536
8.48551
12.2906
16.3361
18.1146
17.728
17.4138
16.555
15.1742
14.3772
13.4352
12.2374
11.4385
10.2301
8.54502
7.35286
6.76356
6.20541
5.55814
5.12454
4.66063
4.12849
3.76267
3.40093
3.03271
2.88118
2.91278
2.82724
2.59746
2.43367
2.24239
2.01478
1.86909
1.7157
1.53898
1.4132
1.24464
1.02345
0.858674
0.763495
0.677783
0.586495
0.518808
0.451877
0.380245
0.324653
0.272967
0.221801
0.18503
0.161283
0.135981
0.105936
0.0797438
0.0584048
0.0403471
0.0262379
0.016532
0.0107792
0.00621365
0.00173105
0.379763
1.19254
2.17709
3.5054
5.45195
8.42909
12.8131
17.8662
19.7513
18.7104
18.4044
17.4048
15.62
14.9211
13.9518
12.5422
11.9041
10.6346
8.58305
7.28309
6.83117
6.30995
5.58191
5.20384
4.74127
4.13548
3.79733
3.42569
2.99025
2.85797
2.99251
2.92817
2.64233
2.49467
2.29876
2.03423
1.90721
1.75595
1.55853
1.45407
1.28107
1.0198
0.843115
0.762557
0.681807
0.583132
0.520941
0.454886
0.376809
0.323126
0.271343
0.21563
0.179152
0.160062
0.136087
0.10335
0.0762212
0.0548371
0.0365323
0.0222865
0.0132131
0.00871381
0.00515653
0.00139802
0.340135
1.07167
1.97079
3.21608
5.11976
8.22639
13.242
19.6645
21.6258
19.5721
19.4249
18.3004
15.9314
15.4699
14.4924
12.7521
12.416
11.104
8.53996
7.12671
6.90315
6.43178
5.56765
5.2886
4.83354
4.11387
3.83402
3.4561
2.9176
2.80757
3.08979
3.04812
2.67063
2.55811
2.35991
2.0383
1.94622
1.79933
1.56739
1.50041
1.32524
1.00738
0.818075
0.761681
0.687555
0.576059
0.523397
0.459035
0.370947
0.321471
0.270205
0.207697
0.171698
0.159409
0.137126
0.100276
0.0722636
0.0510822
0.0324781
0.0179384
0.00958259
0.00661416
0.00412945
0.00108936
0.297407
0.939863
1.74002
2.87578
4.68578
7.84801
13.5161
21.8154
23.8065
20.2118
20.4952
19.2772
16.0448
16.0445
15.0831
12.817
12.9998
11.6739
8.38748
6.86215
6.99595
6.58625
5.49744
5.38667
4.94736
4.05067
3.87859
3.50072
2.8067
2.72145
3.21412
3.19528
2.67208
2.62706
2.43032
2.02
1.98884
1.84904
1.55992
1.55519
1.38128
0.983082
0.781282
0.76256
0.69667
0.563604
0.526886
0.465294
0.361611
0.320068
0.270203
0.197552
0.162282
0.159748
0.139537
0.0964706
0.0678373
0.0472248
0.0282298
0.0131617
0.0056138
0.00453883
0.00316337
0.000813201
0.252446
0.799867
1.48964
2.49077
4.15119
7.26464
13.5456
24.4299
26.3857
20.4807
21.6515
20.3894
15.8675
16.679
15.7633
12.6627
13.6916
12.3923
8.08596
6.46246
7.13273
6.79401
5.34383
5.50951
5.09663
3.92618
3.9394
3.57133
2.64683
2.588
3.37825
3.38061
2.63118
2.70641
2.51654
1.96899
2.03919
1.90978
1.52762
1.62254
1.45469
0.942482
0.729916
0.767572
0.71133
0.543174
0.53243
0.475002
0.347191
0.319469
0.272216
0.184547
0.15039
0.161632
0.143873
0.0915456
0.0629137
0.0433767
0.0238394
0.00791107
0.00126652
0.00256393
0.00228949
0.000575693
0.206108
0.654477
1.22501
2.06932
3.5225
6.4507
13.2016
27.652
29.4876
20.1658
22.954
21.7165
15.2668
17.4254
16.5904
12.1811
14.5413
13.3224
7.58073
5.89481
7.34512
7.08255
5.06629
5.67375
5.30063
3.71144
4.02839
3.68384
2.42397
2.39174
3.59889
3.61862
2.52539
2.80373
2.6279
1.87026
2.10348
1.98831
1.45817
1.7082
1.55273
0.879435
0.660568
0.779957
0.734402
0.510907
0.541514
0.489975
0.325308
0.320481
0.277408
0.167784
0.135352
0.165776
0.150824
0.0849097
0.0574873
0.0396822
0.0193656
0.00212456
-0.00351619
0.000788816
0.00153698
0.000380457
0.159203
0.506409
0.951698
1.62131
2.81224
5.38974
12.3034
31.6659
33.2788
18.9692
24.497
23.371
14.0558
18.3605
17.6455
11.2202
15.6184
14.5462
6.79774
5.12011
7.67485
7.48812
4.60692
5.9033
5.58561
3.36515
4.16239
3.8591
2.12009
2.11244
3.89768
3.9285
2.32283
2.93037
2.77741
1.70258
2.19072
2.09408
1.33407
1.82009
1.68476
0.785549
0.569249
0.803996
0.769624
0.46126
0.556282
0.512656
0.292564
0.324284
0.287292
0.146048
0.11633
0.173092
0.161246
0.0757077
0.0516024
0.0363226
0.0148727
-0.0042781
-0.0088121
-0.000656923
0.000929679
0.000228268
0.112463
0.358187
0.675154
1.15765
2.0393
4.08204
10.6028
36.7041
37.9806
16.4839
26.4225
25.5067
11.9771
19.594
19.0406
9.56956
17.0183
16.1678
5.63857
4.09316
8.1755
8.05812
3.8852
6.23194
5.98676
2.83
4.36493
4.12377
1.71244
1.72414
4.30201
4.33547
1.9795
3.10289
2.98271
1.43658
2.31368
2.24007
1.13115
1.96911
1.86266
0.649598
0.451431
0.845179
0.821832
0.386508
0.579783
0.546277
0.244222
0.332572
0.303792
0.11772
0.0922965
0.184724
0.176199
0.0627443
0.0453905
0.0335172
0.0104295
-0.0113974
-0.0147248
-0.00160486
0.000481675
0.000117147
0.0665228
0.212044
0.40046
0.689604
1.22837
2.55469
7.76612
43.0568
43.8847
12.1639
28.9348
28.3288
8.68192
21.2787
20.926
6.94506
18.8701
18.3168
3.97469
2.76319
8.91389
8.85392
2.79198
6.70645
6.55038
2.0282
4.66842
4.51102
1.17283
1.19417
4.84596
4.87236
1.43607
3.34476
3.26718
1.03239
2.49004
2.44369
0.816742
2.17
2.10119
0.456846
0.302173
0.910346
0.897228
0.276156
0.616281
0.595028
0.173852
0.347742
0.329292
0.0806952
0.0620296
0.202087
0.196989
0.0443955
0.0391202
0.0315203
0.00610694
-0.0193547
-0.0213893
-0.00183762
0.000191744
4.31611e-05
0.0219108
0.0698716
0.13208
0.227918
0.408379
0.874494
3.35298
51.08
51.3707
5.29139
32.3196
32.104
3.708
23.6218
23.4994
2.9708
21.3463
21.1514
1.64125
1.07518
9.97111
9.95422
1.18257
7.39032
7.33618
0.856545
5.11679
5.06116
0.466891
0.482137
5.57107
5.58153
0.614235
3.68833
3.66116
0.437131
2.74372
2.72775
0.347592
2.44249
2.41836
0.1883
0.116314
1.00779
1.00369
0.11628
0.671612
0.664254
0.0729069
0.373122
0.366685
0.0322848
0.0241118
0.226894
0.225207
0.0185084
0.0332596
0.0306121
0.00197574
-0.0282923
-0.0289795
-0.00107714
3.67084e-05
2.25548e-06
)
;

boundaryField
{
    left
    {
        type            calculated;
        value           uniform 0;
    }
    right
    {
        type            calculated;
        value           uniform 0;
    }
    interface
    {
        type            calculated;
        value           nonuniform List<scalar> 
64
(
0.0219108
0.0698716
0.13208
0.227918
0.408379
0.874494
3.35298
51.08
51.3707
5.29139
32.3196
32.104
3.708
23.6218
23.4994
2.9708
21.3463
21.1514
1.64125
1.07518
9.97111
9.95422
1.18257
7.39032
7.33618
0.856545
5.11679
5.06116
0.466891
0.482137
5.57107
5.58153
0.614235
3.68833
3.66116
0.437131
2.74372
2.72775
0.347592
2.44249
2.41836
0.1883
0.116314
1.00779
1.00369
0.11628
0.671612
0.664254
0.0729069
0.373122
0.366685
0.0322848
0.0241118
0.226894
0.225207
0.0185084
0.0332596
0.0306121
0.00197574
-0.0282923
-0.0289795
-0.00107714
3.67084e-05
2.25548e-06
)
;
    }
    bottom
    {
        type            calculated;
        value           nonuniform List<scalar> 
64
(
0.0222141
0.0663955
0.109814
0.151892
0.191971
0.229324
0.263189
0.292838
0.317647
0.337166
0.351165
0.35965
0.362851
0.361187
0.355221
0.345603
0.333029
0.318195
0.301766
0.28435
0.266477
0.248591
0.23105
0.214121
0.197998
0.182803
0.168606
0.155426
0.143245
0.132017
0.121675
0.112139
0.103324
0.0951474
0.0875352
0.0804224
0.0737561
0.0674952
0.0616091
0.0560764
0.0508829
0.0460194
0.0414796
0.0372583
0.0333493
0.0297446
0.0264342
0.0234057
0.0206452
0.0181373
0.0158656
0.0138136
0.0119644
0.0103012
0.00880726
0.0074663
0.00626227
0.00517938
0.00420199
0.00331444
0.00250087
0.00174513
0.00103072
0.000340884
)
;
    }
    defaultFaces
    {
        type            empty;
    }
}


// ************************************************************************* //
