/*--------------------------------*- C++ -*----------------------------------*\
| =========                 |                                                 |
| \\      /  F ield         | OpenFOAM: The Open Source CFD Toolbox           |
|  \\    /   O peration     | Version:  5.x                                   |
|   \\  /    A nd           | Web:      www.OpenFOAM.org                      |
|    \\/     M anipulation  |                                                 |
\*---------------------------------------------------------------------------*/
FoamFile
{
    version     2.0;
    format      ascii;
    class       volScalarField;
    location    "10.3";
    object      T;
}
// * * * * * * * * * * * * * * * * * * * * * * * * * * * * * * * * * * * * * //

dimensions      [0 0 0 1 0 0 0];

internalField   nonuniform List<scalar> 
2048
(
9.85535
9.85604
9.85742
9.85947
9.86217
9.86547
9.86933
9.8737
9.87849
9.88362
9.88902
9.8946
9.90026
9.90594
9.91155
9.91704
9.92235
9.92744
9.93229
9.93687
9.94118
9.9452
9.94895
9.95242
9.95564
9.95861
9.96135
9.96388
9.96621
9.96835
9.97033
9.97216
9.97384
9.97539
9.97681
9.97812
9.97932
9.98043
9.98143
9.98235
9.98319
9.98394
9.98462
9.98524
9.98579
9.98628
9.98672
9.98711
9.98745
9.98775
9.98802
9.98825
9.98845
9.98862
9.98877
9.9889
9.989
9.98909
9.98916
9.98922
9.98927
9.9893
9.98932
9.98933
9.57179
9.57385
9.57795
9.58403
9.59203
9.60184
9.61331
9.62626
9.64048
9.65574
9.67178
9.68833
9.70514
9.72197
9.73862
9.75488
9.77062
9.78571
9.80006
9.81361
9.82634
9.83823
9.8493
9.85956
9.86906
9.87783
9.88592
9.89338
9.90025
9.90659
9.91243
9.91781
9.92277
9.92734
9.93154
9.93541
9.93896
9.94221
9.94519
9.9479
9.95036
9.95259
9.9546
9.95641
9.95803
9.95948
9.96077
9.96192
9.96293
9.96382
9.9646
9.96528
9.96587
9.96638
9.96682
9.96719
9.9675
9.96777
9.96798
9.96815
9.96828
9.96838
9.96844
9.96848
9.29908
9.30246
9.30919
9.31919
9.33234
9.34847
9.36735
9.38868
9.41211
9.43724
9.46364
9.49088
9.51853
9.5462
9.57353
9.60022
9.62602
9.65073
9.67421
9.69637
9.71716
9.73656
9.75461
9.77134
9.78681
9.80109
9.81426
9.8264
9.83759
9.8479
9.8574
9.86615
9.87422
9.88166
9.88851
9.89481
9.90059
9.90588
9.91072
9.91513
9.91914
9.92277
9.92604
9.92899
9.93163
9.93398
9.93608
9.93794
9.93958
9.94102
9.94228
9.94339
9.94434
9.94517
9.94588
9.94648
9.94699
9.94741
9.94775
9.94803
9.94825
9.9484
9.9485
9.94855
9.03596
9.04063
9.04992
9.06374
9.08194
9.10429
9.13046
9.16004
9.19255
9.22741
9.26403
9.30178
9.34007
9.37835
9.41611
9.45294
9.4885
9.52251
9.55478
9.5852
9.6137
9.64028
9.66498
9.68785
9.70898
9.72848
9.74646
9.76302
9.77827
9.79233
9.80529
9.81723
9.82824
9.83839
9.84774
9.85633
9.86423
9.87146
9.87806
9.88408
9.88955
9.8945
9.89896
9.90298
9.90657
9.90977
9.91263
9.91515
9.91738
9.91934
9.92106
9.92255
9.92385
9.92497
9.92592
9.92674
9.92742
9.928
9.92846
9.92884
9.92912
9.92933
9.92947
9.92954
8.78139
8.78732
8.79913
8.81671
8.83988
8.86837
8.90177
8.93956
8.9811
9.02565
9.07242
9.12061
9.16943
9.21816
9.26617
9.31292
9.35797
9.40099
9.44175
9.4801
9.51599
9.54941
9.58042
9.60911
9.6356
9.66002
9.68251
9.70323
9.72231
9.73989
9.7561
9.77104
9.78482
9.79752
9.80923
9.81999
9.82988
9.83893
9.84721
9.85474
9.86158
9.86777
9.87336
9.87837
9.88285
9.88685
9.8904
9.89355
9.89633
9.89876
9.9009
9.90275
9.90436
9.90575
9.90694
9.90794
9.90879
9.9095
9.91007
9.91053
9.91089
9.91115
9.91132
9.9114
8.53453
8.54169
8.55596
8.57724
8.60533
8.63992
8.68054
8.72655
8.77716
8.83143
8.88838
8.947
9.0063
9.0654
9.12351
9.17999
9.23432
9.28609
9.33505
9.38103
9.42397
9.4639
9.5009
9.53508
9.56661
9.59565
9.62239
9.647
9.66966
9.69054
9.70979
9.72754
9.74392
9.75902
9.77294
9.78575
9.79751
9.80828
9.81812
9.82709
9.83522
9.84257
9.8492
9.85514
9.86045
9.86519
9.86939
9.87311
9.87639
9.87926
9.88178
9.88397
9.88586
9.88749
9.88888
9.89007
9.89106
9.89188
9.89256
9.8931
9.89351
9.89381
9.89401
9.8941
8.29468
8.30304
8.31972
8.34463
8.3776
8.41827
8.46613
8.52042
8.58019
8.64429
8.71151
8.78061
8.85041
8.91983
8.98796
9.05402
9.11742
9.17771
9.23459
9.28789
9.33757
9.38369
9.42634
9.4657
9.50196
9.53533
9.56602
9.59426
9.62026
9.64421
9.6663
9.68667
9.70548
9.72283
9.73883
9.75355
9.76708
9.77946
9.79078
9.80108
9.81042
9.81886
9.82645
9.83326
9.83934
9.84476
9.84956
9.8538
9.85754
9.86081
9.86367
9.86616
9.86831
9.87015
9.87173
9.87307
9.87419
9.87512
9.87588
9.87649
9.87695
9.87729
9.87751
9.87762
8.06128
8.0708
8.08983
8.11831
8.15609
8.20284
8.25799
8.32067
8.38974
8.46383
8.54147
8.62117
8.70152
8.78126
8.85933
8.93485
9.00715
9.07572
9.14025
9.20058
9.25668
9.30865
9.35664
9.40085
9.44153
9.47893
9.51331
9.54492
9.57401
9.60081
9.62553
9.64835
9.66943
9.68889
9.70683
9.72335
9.73852
9.75243
9.76512
9.77667
9.78714
9.79659
9.80509
9.81269
9.81948
9.82552
9.83086
9.83558
9.83973
9.84337
9.84654
9.84929
9.85167
9.85371
9.85545
9.85692
9.85816
9.85918
9.86001
9.86067
9.86118
9.86155
9.86179
9.8619
7.83388
7.84452
7.86582
7.89778
7.94031
7.99313
8.05562
8.12682
8.20539
8.28969
8.37796
8.46841
8.5594
8.64949
8.73746
8.82232
8.90334
8.97997
9.05189
9.11895
9.18116
9.23866
9.29165
9.34041
9.3852
9.42634
9.46413
9.49885
9.53079
9.56023
9.58739
9.61248
9.63567
9.65709
9.67686
9.69506
9.71179
9.72711
9.74109
9.75381
9.76533
9.77572
9.78505
9.79339
9.80082
9.80742
9.81326
9.81841
9.82293
9.82689
9.83034
9.83333
9.83591
9.83812
9.84
9.84159
9.84292
9.84402
9.84491
9.84562
9.84616
9.84655
9.84681
9.84693
7.61212
7.62382
7.64728
7.68261
7.72981
7.78866
7.85858
7.93847
8.02679
8.12157
8.22071
8.32211
8.42387
8.52434
8.62217
8.71627
8.80585
8.89032
8.96937
9.04286
9.11085
9.17355
9.23123
9.2842
9.33282
9.37741
9.41833
9.45591
9.49048
9.52234
9.55175
9.57895
9.6041
9.62736
9.64883
9.66861
9.68679
9.70344
9.71863
9.73244
9.74494
9.75619
9.76628
9.77529
9.78331
9.79042
9.79671
9.80225
9.8071
9.81135
9.81504
9.81823
9.82098
9.82334
9.82535
9.82704
9.82845
9.82961
9.83055
9.83129
9.83186
9.83227
9.83254
9.83267
7.39573
7.40841
7.43392
7.47247
7.52421
7.58905
7.66646
7.75525
7.8536
7.95919
8.0695
8.18208
8.29474
8.40564
8.51329
8.61654
8.7145
8.80661
8.89251
8.97212
9.04557
9.11314
9.17518
9.23207
9.2842
9.33198
9.37577
9.41597
9.45294
9.48701
9.51849
9.54763
9.57462
9.59958
9.62265
9.64391
9.66344
9.68134
9.69766
9.71249
9.72589
9.73795
9.74874
9.75836
9.76691
9.77448
9.78116
9.78704
9.79219
9.79668
9.80059
9.80396
9.80686
9.80934
9.81145
9.81322
9.8147
9.81591
9.81689
9.81766
9.81825
9.81867
9.81894
9.81908
7.18452
7.1981
7.22548
7.26705
7.32316
7.39392
7.47889
7.57681
7.68555
7.80232
7.92413
8.04814
8.17186
8.29324
8.41067
8.52294
8.62914
8.72865
8.82113
8.90656
8.98514
9.05725
9.12333
9.18382
9.2392
9.28988
9.33629
9.37887
9.41801
9.4541
9.48749
9.51842
9.5471
9.57367
9.59823
9.62087
9.64168
9.66074
9.67812
9.69389
9.70814
9.72093
9.73236
9.74253
9.75155
9.75953
9.76657
9.77275
9.77815
9.78286
9.78695
9.79048
9.7935
9.79609
9.79828
9.80011
9.80164
9.80289
9.80389
9.80468
9.80528
9.80571
9.80599
9.80613
6.97834
6.99271
7.02177
7.06612
7.12638
7.20294
7.29552
7.40283
7.52235
7.65074
7.78445
7.92016
8.05507
8.18696
8.31414
8.43532
8.54957
8.65627
8.75506
8.84598
8.92935
9.00567
9.07547
9.13928
9.19761
9.25093
9.29973
9.34445
9.38556
9.42348
9.45859
9.49118
9.52145
9.54951
9.57547
9.59941
9.62141
9.64156
9.65992
9.67658
9.69161
9.70508
9.71709
9.72775
9.73719
9.74553
9.75288
9.75932
9.76495
9.76985
9.77409
9.77774
9.78087
9.78353
9.78579
9.78768
9.78924
9.79052
9.79154
9.79234
9.79294
9.79338
9.79366
9.79379
6.77712
6.79214
6.82265
6.86947
6.93359
7.01577
7.11601
7.233
7.36379
7.5043
7.6503
7.798
7.94425
8.08667
8.22352
8.35349
8.47563
8.58929
8.69411
8.79019
8.878
8.95819
9.03139
9.09823
9.15925
9.21498
9.26591
9.31256
9.35542
9.39498
9.43167
9.46579
9.49753
9.527
9.55427
9.57943
9.60255
9.62372
9.64301
9.66049
9.67624
9.69033
9.70286
9.71396
9.72378
9.73243
9.74004
9.74671
9.75253
9.75758
9.76195
9.76571
9.76892
9.77165
9.77395
9.77588
9.77747
9.77876
9.77979
9.78059
9.78119
9.78162
9.7819
9.78203
6.58081
6.59634
6.62802
6.67695
6.74456
6.83211
6.94003
7.06702
7.20964
7.36284
7.52158
7.68155
7.83925
7.9922
8.13865
8.27727
8.40711
8.52752
8.63809
8.73898
8.83087
8.91459
8.99089
9.06047
9.12394
9.18183
9.23469
9.28305
9.32746
9.36848
9.40659
9.44213
9.47526
9.50604
9.53455
9.56085
9.58502
9.60715
9.6273
9.64556
9.66198
9.67664
9.68963
9.70111
9.71125
9.72017
9.72801
9.73487
9.74085
9.74603
9.75051
9.75434
9.75761
9.76039
9.76273
9.76468
9.76629
9.76759
9.76861
9.76941
9.77
9.77042
9.77069
9.77082
6.38941
6.40529
6.43782
6.48844
6.55909
6.65167
6.76722
6.90462
7.05973
7.22625
7.39821
7.57074
7.73998
7.90341
8.05935
8.20645
8.34382
8.47078
8.5868
8.69213
8.78772
8.87464
8.95375
9.02582
9.0915
9.15133
9.20589
9.25576
9.30153
9.34382
9.38322
9.42008
9.45451
9.48654
9.51622
9.54359
9.56874
9.59176
9.61273
9.63171
9.64876
9.66393
9.67734
9.68915
9.69955
9.7087
9.71673
9.72376
9.72987
9.73516
9.73971
9.74361
9.74692
9.74973
9.7521
9.75406
9.75567
9.75697
9.75799
9.75877
9.75934
9.75975
9.76001
9.76014
6.20296
6.219
6.25203
6.30384
6.37698
6.47416
6.59725
6.74548
6.91392
7.09447
7.2801
7.46548
7.64631
7.82011
7.98542
8.14084
8.28555
8.41888
8.54007
8.64945
8.74834
8.83814
8.91977
8.99406
9.06173
9.1233
9.17936
9.23055
9.27748
9.32086
9.36142
9.39952
9.43518
9.4684
9.49919
9.52757
9.55364
9.5775
9.59923
9.61889
9.63653
9.65217
9.66592
9.67801
9.68864
9.69798
9.70617
9.71333
9.71955
9.72492
9.72954
9.73347
9.73681
9.73964
9.74201
9.74399
9.74559
9.74687
9.74787
9.74863
9.74919
9.74958
9.74983
9.74995
6.02148
6.03749
6.07064
6.1231
6.19808
6.29929
6.42975
6.58931
6.77208
6.96745
7.16721
7.36572
7.55812
7.74214
7.91668
8.08021
8.23208
8.37166
8.49772
8.6107
8.71248
8.80485
8.88871
8.96499
9.03448
9.09759
9.15495
9.20729
9.25518
9.29947
9.34105
9.38034
9.41719
9.45153
9.48338
9.51271
9.53962
9.56429
9.58672
9.60702
9.62523
9.64129
9.65534
9.66764
9.67846
9.68796
9.69628
9.70355
9.70985
9.71529
9.71994
9.7239
9.72724
9.73007
9.73245
9.73442
9.73602
9.73728
9.73825
9.73898
9.73952
9.73988
9.74012
9.74023
5.84504
5.86083
5.8937
5.94619
6.02225
6.12678
6.26431
6.43577
6.63417
6.84518
7.05948
7.27143
7.4753
7.66929
7.85294
8.02434
8.18317
8.32894
8.45959
8.57567
8.67989
8.77455
8.86039
8.93843
9.00958
9.07404
9.13253
9.18585
9.23451
9.2795
9.32199
9.36245
9.40044
9.43584
9.46872
9.49893
9.52663
9.55205
9.57515
9.59605
9.61481
9.63126
9.64554
9.658
9.66897
9.67858
9.687
9.69437
9.70074
9.70621
9.71089
9.71485
9.71819
9.72101
9.72339
9.72535
9.72692
9.72816
9.7291
9.7298
9.7303
9.73064
9.73086
9.73096
5.67371
5.68907
5.72124
5.77312
5.84941
5.95635
6.10049
6.28449
6.5002
6.72772
6.95684
7.1826
7.39775
7.60133
7.79402
7.97299
8.13855
8.2906
8.42554
8.54413
8.65031
8.74704
8.8346
8.91416
8.98686
9.05251
9.11193
9.16612
9.21535
9.26082
9.3041
9.34574
9.38484
9.42126
9.45514
9.48617
9.51459
9.54074
9.56446
9.58592
9.60522
9.62202
9.63646
9.64903
9.66012
9.66982
9.67831
9.68575
9.69217
9.69767
9.70236
9.70631
9.70962
9.71242
9.71479
9.71673
9.71828
9.71948
9.72039
9.72104
9.72151
9.72182
9.72202
9.72211
5.50754
5.52229
5.55334
5.60394
5.6795
5.78776
5.9378
6.13504
6.37031
6.61516
6.85921
7.09927
7.32533
7.53799
7.73974
7.92592
8.09793
8.25652
8.39544
8.51585
8.62345
8.72211
8.81114
8.892
8.96621
9.03287
9.09303
9.148
9.1976
9.24329
9.28724
9.33015
9.37034
9.4077
9.44259
9.47436
9.50342
9.53028
9.55457
9.57656
9.59644
9.61355
9.62807
9.64068
9.65186
9.66162
9.67016
9.67767
9.68412
9.68962
9.69432
9.69824
9.7015
9.70427
9.70663
9.70856
9.71007
9.71123
9.7121
9.71271
9.71313
9.7134
9.71359
9.71366
5.3466
5.36055
5.39009
5.4387
5.51249
5.62076
5.77571
5.98686
6.24477
6.50764
6.76639
7.02151
7.25793
7.47893
7.68999
7.88286
8.06095
8.22665
8.36922
8.49058
8.599
8.69961
8.78984
8.87172
8.94751
9.01499
9.07567
9.13142
9.18116
9.22676
9.27126
9.31562
9.35686
9.39508
9.43102
9.46345
9.49304
9.52064
9.54543
9.5679
9.58842
9.60581
9.62031
9.63288
9.64416
9.65396
9.66251
9.6701
9.67655
9.68203
9.68673
9.69061
9.69381
9.69654
9.6989
9.7008
9.70228
9.70339
9.7042
9.70476
9.70514
9.70537
9.70553
9.7056
5.19093
5.20392
5.23156
5.2775
5.34842
5.45517
5.61359
5.83925
6.12409
6.40533
6.67809
6.94952
7.19543
7.42371
7.64472
7.84356
8.02714
8.20101
8.34683
8.46805
8.57661
8.67941
8.77053
8.8531
8.93067
8.99874
9.05969
9.11633
9.16597
9.2111
9.256
9.30212
9.34435
9.38329
9.42041
9.45337
9.48337
9.51178
9.53698
9.55987
9.58115
9.59877
9.61313
9.6256
9.63699
9.64678
9.65532
9.66299
9.66944
9.67488
9.67958
9.68341
9.68651
9.68919
9.69155
9.69344
9.69486
9.69593
9.69669
9.69719
9.69751
9.69771
9.69785
9.6979
5.04057
5.05244
5.07784
5.12047
5.18738
5.29085
5.45079
5.69126
6.00911
6.30848
6.59381
6.88362
7.13771
7.37175
7.60399
7.80774
7.99594
8.17974
8.32827
8.44796
8.55587
8.66144
8.75305
8.83587
8.91567
8.98404
9.0449
9.1027
9.15196
9.19615
9.24127
9.28966
9.33277
9.37224
9.41073
9.44407
9.4743
9.50367
9.52918
9.55238
9.57462
9.59241
9.60648
9.61876
9.63031
9.64006
9.64854
9.65634
9.66275
9.66812
9.67285
9.6766
9.67959
9.6822
9.68459
9.68645
9.68782
9.68883
9.68953
9.68997
9.69023
9.69039
9.6905
9.69055
4.89553
4.90616
4.92902
4.96775
5.02952
5.12774
5.2866
5.54155
5.90111
6.21736
6.51274
6.82439
7.08463
7.32224
7.56806
7.77513
7.96656
8.16313
8.31356
8.43
8.53627
8.64573
8.73727
8.81971
8.90254
8.97076
9.03109
9.09058
9.1391
9.18175
9.22683
9.27831
9.32209
9.36176
9.40203
9.43551
9.46573
9.49633
9.52195
9.54531
9.56884
9.58673
9.60032
9.61229
9.62413
9.63378
9.64213
9.65013
9.65647
9.66173
9.66652
9.67017
9.67301
9.67553
9.67799
9.67982
9.68112
9.68208
9.68272
9.68309
9.68328
9.68339
9.68349
9.68352
4.7558
4.7651
4.78517
4.81947
4.87504
4.9659
5.12029
5.38828
5.80202
6.13223
6.43364
6.77271
7.03605
7.27411
7.53745
7.74546
7.93798
8.1517
8.30279
8.41381
8.51723
8.63243
8.72305
8.80423
8.89139
8.95883
9.01797
9.08004
9.12737
9.16775
9.21241
9.26819
9.31226
9.35169
9.39436
9.42764
9.45749
9.48979
9.51527
9.53854
9.56387
9.5817
9.59459
9.60612
9.61842
9.62789
9.63603
9.64436
9.65057
9.65566
9.66057
9.6641
9.66675
9.66917
9.67174
9.67353
9.67475
9.67565
9.67623
9.67653
9.67664
9.67671
9.67678
9.67681
4.62136
4.62925
4.64636
4.6758
4.72419
4.80553
4.95121
5.22883
5.71465
6.05338
6.35467
6.72999
6.99184
7.22585
7.51306
7.71845
7.90877
8.14631
8.29603
8.399
8.49798
8.6219
8.71029
8.78889
8.88247
8.94816
9.00516
9.07127
9.11676
9.15398
9.19764
9.25955
9.30328
9.34178
9.38786
9.42042
9.44939
9.48414
9.50907
9.53188
9.55977
9.57734
9.58923
9.60015
9.61321
9.62238
9.63019
9.63902
9.64503
9.64987
9.65501
9.65838
9.66078
9.66308
9.66583
9.66757
9.66869
9.66954
9.67005
9.67028
9.6703
9.67032
9.67038
9.67039
4.49216
4.4986
4.51262
4.53689
4.57728
4.64696
4.77887
5.05951
5.64299
5.981
6.27317
6.69831
6.95181
7.1754
7.49636
7.69385
7.87702
8.14826
8.29334
8.38516
8.47755
8.6147
8.69888
8.77302
8.87619
8.93866
8.99217
9.06455
9.10729
9.1403
9.18203
9.25276
9.29512
9.33168
9.38273
9.4138
9.44118
9.47954
9.50331
9.52511
9.55669
9.57363
9.58418
9.59427
9.60855
9.61722
9.62451
9.63414
9.63983
9.64431
9.64984
9.65298
9.65508
9.65721
9.66027
9.66192
9.66292
9.66372
9.66416
9.66432
9.66423
9.66421
9.66425
9.66426
4.36814
4.37311
4.38396
4.40285
4.43463
4.49074
4.60306
4.87522
5.59262
5.91518
6.1854
6.68071
6.91575
7.11996
7.48951
7.67138
7.84014
8.15946
8.29471
8.37188
8.45471
8.61172
8.68872
8.75569
8.8732
8.93024
8.97836
9.06031
9.09895
9.12657
9.16497
9.24837
9.28773
9.32096
9.37931
9.40775
9.43251
9.47621
9.49795
9.5179
9.55483
9.57055
9.57938
9.58834
9.6045
9.61239
9.61892
9.62977
9.63494
9.63892
9.64507
9.6479
9.64964
9.65153
9.65505
9.65657
9.65741
9.65818
9.65855
9.65865
9.65841
9.65837
9.65839
9.6584
4.2492
4.25271
4.26039
4.27381
4.29657
4.33754
4.42413
4.66888
5.57114
5.85577
6.08626
6.68148
6.88334
7.05576
7.49566
7.65078
7.7947
8.1826
8.29995
8.35881
8.42786
8.61429
8.67967
8.7357
8.87442
8.92279
8.96286
9.05919
9.09173
9.11271
9.14561
9.24715
9.28109
9.309
9.37806
9.40221
9.42295
9.47452
9.49295
9.50987
9.55449
9.56807
9.57479
9.58218
9.6012
9.60786
9.61328
9.62598
9.63035
9.63361
9.64074
9.64311
9.64442
9.64599
9.65019
9.6515
9.65215
9.65292
9.6532
9.65324
9.65284
9.65278
9.65279
9.6528
4.13524
4.13732
4.14187
4.14984
4.16342
4.18822
4.24325
4.43091
5.58878
5.80231
5.9689
6.70652
6.85418
6.97783
7.51914
7.63177
7.73617
8.22146
8.30857
8.34567
8.39492
8.62423
8.6716
8.71148
8.88118
8.91618
8.94456
9.06207
9.08553
9.09872
9.12285
9.25015
9.27511
9.29503
9.37963
9.39713
9.4119
9.47494
9.48826
9.50047
9.55607
9.56613
9.57035
9.57557
9.5988
9.60361
9.60743
9.62287
9.62602
9.6283
9.63689
9.63859
9.63941
9.64053
9.64573
9.64669
9.64711
9.64791
9.6481
9.6481
9.64749
9.64743
9.64744
9.64744
4.02615
4.02684
4.02834
4.03097
4.03546
4.04373
4.06279
4.14851
5.65904
5.75384
5.82439
6.76383
6.82764
6.8797
7.56582
7.61406
7.65866
8.28113
8.31964
8.33242
8.35324
8.64402
8.66431
8.68097
8.89526
8.91023
8.92202
9.07013
9.08019
9.08472
9.09525
9.25882
9.26967
9.27801
9.38494
9.39242
9.3986
9.47816
9.48384
9.48902
9.56017
9.5646
9.56605
9.56823
9.59754
9.5996
9.60118
9.62059
9.62194
9.62287
9.6336
9.63432
9.6346
9.63508
9.64169
9.64212
9.64227
9.64315
9.64323
9.64322
9.64235
9.64231
9.64231
9.64231
)
;

boundaryField
{
    left
    {
        type            zeroGradient;
    }
    right
    {
        type            zeroGradient;
    }
    interface
    {
        type            fixedValue;
        value           nonuniform List<scalar> 
64
(
3.97281
3.97281
3.97281
3.97281
3.97281
3.97281
3.97281
3.97281
5.73079
5.73079
5.73079
6.81498
6.81498
6.81498
7.6055
7.6055
7.6055
8.32573
8.32573
8.32573
8.32573
8.66084
8.66084
8.66084
8.90741
8.90741
8.90741
9.07772
9.07772
9.07772
9.07772
9.26708
9.26708
9.26708
9.39015
9.39015
9.39015
9.48169
9.48169
9.48169
9.56393
9.56393
9.56393
9.56393
9.59765
9.59765
9.59765
9.61995
9.61995
9.61995
9.63225
9.63225
9.63225
9.63225
9.63989
9.63989
9.63989
9.64085
9.64085
9.64085
9.63981
9.63981
9.63981
9.63981
)
;
    }
    bottom
    {
        type            fixedValue;
        value           uniform 10;
    }
    defaultFaces
    {
        type            empty;
    }
}


// ************************************************************************* //
