/*--------------------------------*- C++ -*----------------------------------*\
| =========                 |                                                 |
| \\      /  F ield         | OpenFOAM: The Open Source CFD Toolbox           |
|  \\    /   O peration     | Version:  5.x                                   |
|   \\  /    A nd           | Web:      www.OpenFOAM.org                      |
|    \\/     M anipulation  |                                                 |
\*---------------------------------------------------------------------------*/
FoamFile
{
    version     2.0;
    format      ascii;
    class       volScalarField;
    location    "4.5";
    object      T;
}
// * * * * * * * * * * * * * * * * * * * * * * * * * * * * * * * * * * * * * //

dimensions      [0 0 0 1 0 0 0];

internalField   nonuniform List<scalar> 
2048
(
9.85312
9.8538
9.85514
9.85714
9.85976
9.86298
9.86673
9.87097
9.87562
9.8806
9.88583
9.89122
9.8967
9.90217
9.90757
9.91283
9.91792
9.92278
9.92739
9.93173
9.93579
9.93957
9.94306
9.94629
9.94925
9.95197
9.95445
9.95672
9.95879
9.96068
9.96241
9.96398
9.96541
9.96672
9.9679
9.96898
9.96997
9.97086
9.97167
9.9724
9.97306
9.97366
9.97419
9.97468
9.97511
9.9755
9.97586
9.97617
9.97645
9.97671
9.97693
9.97714
9.97732
9.97748
9.97763
9.97776
9.97787
9.97797
9.97805
9.97812
9.97817
9.97821
9.97824
9.97826
9.56523
9.56724
9.57122
9.57715
9.58493
9.59447
9.60563
9.61821
9.63202
9.64682
9.66235
9.67837
9.69461
9.71084
9.72685
9.74247
9.75753
9.77193
9.78558
9.79842
9.81042
9.82158
9.83191
9.84143
9.85017
9.85819
9.86552
9.87222
9.87833
9.88391
9.889
9.89363
9.89785
9.9017
9.9052
9.90839
9.91129
9.91392
9.9163
9.91846
9.92041
9.92217
9.92376
9.92518
9.92647
9.92762
9.92865
9.92958
9.93042
9.93116
9.93183
9.93243
9.93297
9.93345
9.93388
9.93426
9.93459
9.93488
9.93512
9.93533
9.93549
9.93561
9.93569
9.93573
9.28841
9.29171
9.29826
9.30799
9.3208
9.33649
9.35485
9.37558
9.39833
9.42271
9.44829
9.47465
9.50136
9.52804
9.55435
9.57997
9.60467
9.62825
9.65058
9.67157
9.69118
9.70939
9.72623
9.74174
9.75599
9.76903
9.78097
9.79186
9.8018
9.81087
9.81914
9.82667
9.83354
9.83979
9.84549
9.85067
9.85538
9.85966
9.86354
9.86704
9.87021
9.87307
9.87565
9.87797
9.88005
9.88192
9.8836
9.88511
9.88646
9.88767
9.88876
9.88974
9.89061
9.89139
9.89208
9.8927
9.89324
9.89371
9.89411
9.89444
9.8947
9.8949
9.89503
9.8951
9.02143
9.02598
9.03503
9.04849
9.06621
9.08796
9.11341
9.14217
9.17374
9.20757
9.24305
9.27959
9.31659
9.35351
9.38985
9.42522
9.45926
9.49172
9.52242
9.55123
9.57811
9.60306
9.62609
9.64729
9.66675
9.68455
9.70083
9.71568
9.72923
9.74158
9.75284
9.76311
9.77246
9.78098
9.78875
9.79581
9.80223
9.80805
9.81333
9.81811
9.82243
9.82632
9.82983
9.83298
9.83582
9.83836
9.84064
9.84269
9.84453
9.84617
9.84765
9.84898
9.85017
9.85123
9.85218
9.85302
9.85375
9.85439
9.85494
9.85539
9.85575
9.85602
9.8562
9.85629
8.76324
8.76902
8.78052
8.79765
8.82022
8.84795
8.88045
8.91719
8.95755
9.00079
9.04613
9.09277
9.13996
9.18697
9.23318
9.27807
9.32121
9.36228
9.40105
9.43739
9.47123
9.50258
9.5315
9.55809
9.58246
9.60474
9.6251
9.64366
9.66059
9.67602
9.69008
9.7029
9.71459
9.72523
9.73493
9.74375
9.75178
9.75906
9.76565
9.77162
9.77701
9.78187
9.78624
9.79018
9.79371
9.79687
9.79972
9.80227
9.80455
9.80661
9.80845
9.8101
9.81158
9.81291
9.81409
9.81514
9.81606
9.81686
9.81755
9.81811
9.81857
9.81891
9.81913
9.81925
8.51301
8.51999
8.5339
8.55463
8.582
8.61568
8.65521
8.69996
8.74914
8.80184
8.85707
8.91382
8.97115
9.02818
9.08413
9.13838
9.19041
9.23984
9.28641
9.32996
9.37046
9.40791
9.44241
9.47407
9.50306
9.52955
9.55372
9.57575
9.59583
9.61412
9.6308
9.646
9.65985
9.67248
9.68398
9.69445
9.70397
9.7126
9.72043
9.7275
9.73389
9.73965
9.74483
9.74948
9.75365
9.7574
9.76076
9.76377
9.76647
9.7689
9.77107
9.77303
9.77478
9.77635
9.77775
9.779
9.7801
9.78105
9.78186
9.78254
9.78308
9.78349
9.78376
9.7839
8.27004
8.27819
8.29445
8.31873
8.35085
8.39048
8.43707
8.4899
8.548
8.61026
8.67546
8.7424
8.80989
8.8769
8.94251
9.00598
9.06671
9.12427
9.17837
9.22886
9.27571
9.31895
9.35871
9.39515
9.42847
9.45888
9.48659
9.51184
9.53484
9.55579
9.57489
9.59229
9.60817
9.62263
9.63582
9.64781
9.65872
9.66862
9.67758
9.68569
9.693
9.69959
9.70551
9.71082
9.71559
9.71986
9.72369
9.72713
9.73021
9.73297
9.73546
9.73769
9.73969
9.74149
9.7431
9.74453
9.74579
9.74689
9.74782
9.74861
9.74923
9.7497
9.75001
9.75017
8.03375
8.04304
8.0616
8.08937
8.1262
8.17175
8.22546
8.28647
8.35364
8.42563
8.50097
8.5782
8.65592
8.73292
8.80812
8.88069
8.94995
9.01542
9.07681
9.13396
9.18685
9.23557
9.28028
9.32119
9.35855
9.3926
9.42361
9.45183
9.47752
9.50092
9.52225
9.54169
9.55943
9.5756
9.59034
9.60375
9.61595
9.62701
9.63704
9.64609
9.65426
9.66161
9.66821
9.67413
9.67944
9.68419
9.68845
9.69227
9.69569
9.69877
9.70153
9.70402
9.70625
9.70826
9.71005
9.71165
9.71307
9.7143
9.71536
9.71624
9.71694
9.71747
9.71783
9.718
7.8037
7.81407
7.83485
7.86603
7.90751
7.95899
8.01988
8.08921
8.16566
8.2476
8.33328
8.42096
8.50902
8.59602
8.68078
8.76235
8.83998
8.91316
8.98157
9.04509
9.10373
9.15761
9.20697
9.25205
9.29316
9.33058
9.36461
9.39557
9.42373
9.44938
9.47275
9.49407
9.51352
9.53126
9.54744
9.56217
9.57555
9.5877
9.5987
9.60863
9.61758
9.62563
9.63285
9.63932
9.64512
9.6503
9.65495
9.65912
9.66285
9.66621
9.66922
9.67194
9.67438
9.67658
9.67855
9.68031
9.68187
9.68323
9.6844
9.68537
9.68615
9.68674
9.68713
9.68733
7.57951
7.59092
7.61382
7.64829
7.69434
7.75173
7.81988
7.89771
7.98367
8.07584
8.17212
8.27046
8.36897
8.46603
8.56031
8.65077
8.73662
8.81729
8.89249
8.96209
9.02616
9.08491
9.1386
9.18756
9.23212
9.27264
9.30945
9.34291
9.37332
9.40101
9.42625
9.44929
9.47032
9.48951
9.50701
9.52295
9.53744
9.55058
9.56248
9.57321
9.58288
9.59157
9.59935
9.60632
9.61255
9.61813
9.62312
9.6276
9.63161
9.63521
9.63846
9.64138
9.64401
9.64638
9.64851
9.65042
9.65212
9.6536
9.65488
9.65594
9.6568
9.65744
9.65787
9.65809
7.3609
7.37328
7.39818
7.43581
7.4863
7.54956
7.62504
7.71158
7.80736
7.91008
8.01726
8.12648
8.23558
8.34275
8.44653
8.54579
8.63969
8.72766
8.80937
8.88477
8.95397
9.01725
9.07497
9.12751
9.17526
9.21861
9.25796
9.29367
9.32613
9.35568
9.38262
9.40721
9.42969
9.45021
9.46894
9.48599
9.50149
9.51555
9.52827
9.53975
9.55008
9.55934
9.56763
9.57504
9.58167
9.58759
9.59289
9.59763
9.60189
9.60572
9.60916
9.61227
9.61507
9.61761
9.61989
9.62194
9.62376
9.62536
9.62673
9.62789
9.62881
9.62951
9.62998
9.63021
7.14767
7.16093
7.18767
7.22826
7.28304
7.3521
7.43499
7.53047
7.63641
7.75006
7.86847
7.98883
8.10868
8.22602
8.33926
8.44722
8.54901
8.64406
8.73204
8.81293
8.88694
8.95445
9.01589
9.07171
9.12237
9.16831
9.20994
9.24771
9.282
9.31321
9.34168
9.36771
9.39151
9.41326
9.4331
9.45118
9.46762
9.48252
9.496
9.50815
9.51907
9.52886
9.5376
9.54541
9.55237
9.5586
9.56417
9.56916
9.57363
9.57765
9.58128
9.58455
9.5875
9.59018
9.5926
9.59478
9.59672
9.59843
9.59991
9.60114
9.60214
9.60289
9.60339
9.60365
6.93967
6.9537
6.98209
7.0254
7.08425
7.159
7.24937
7.35404
7.47055
7.59557
7.7256
7.85737
7.98812
8.11565
8.23832
8.35487
8.4644
8.56631
8.66028
8.74636
8.82486
8.89627
8.96113
9.01996
9.07327
9.12154
9.16524
9.20483
9.24076
9.27346
9.30331
9.33063
9.35564
9.37851
9.39939
9.41842
9.4357
9.45138
9.46555
9.47832
9.48978
9.50004
9.50918
9.51734
9.5246
9.53109
9.53689
9.54209
9.54675
9.55095
9.55473
9.55814
9.56124
9.56405
9.56659
9.56889
9.57095
9.57276
9.57433
9.57565
9.57672
9.57752
9.57806
9.57833
6.73679
6.75147
6.78128
6.82703
6.88967
6.96993
7.06782
7.18199
7.30954
7.44643
7.58849
7.73195
7.87374
8.0115
8.14353
8.26855
8.38564
8.4942
8.59391
8.68485
8.76751
8.8425
8.91048
8.97204
9.02775
9.07812
9.12366
9.16487
9.20224
9.23625
9.26734
9.29583
9.32195
9.34585
9.36769
9.38758
9.40565
9.42204
9.43684
9.45017
9.46212
9.4728
9.4823
9.49075
9.49828
9.50499
9.51099
9.51637
9.5212
9.52554
9.52945
9.53299
9.53621
9.53914
9.5418
9.54421
9.54638
9.5483
9.54996
9.55136
9.55249
9.55335
9.55392
9.5542
6.539
6.55418
6.58514
6.63296
6.69903
6.78458
6.89
7.014
7.15315
7.30248
7.457
7.61246
7.7654
7.91338
8.0547
8.18805
8.31254
8.42755
8.5327
8.62818
8.71464
8.7929
8.86371
8.92774
8.9856
9.03785
9.08502
9.12765
9.16628
9.20144
9.23362
9.26317
9.29031
9.31517
9.33788
9.35857
9.37736
9.39439
9.40977
9.42362
9.43602
9.44706
9.45687
9.46558
9.47332
9.48022
9.48639
9.49192
9.49689
9.50135
9.50538
9.50903
9.51236
9.51539
9.51817
9.52069
9.52296
9.52498
9.52673
9.52821
9.5294
9.53031
9.53091
9.53121
6.34626
6.36179
6.39359
6.44307
6.51214
6.60264
6.71556
6.84978
7.00121
7.1636
7.33106
7.49879
7.66298
7.82114
7.97164
8.11317
8.24488
8.36614
8.47647
8.57613
8.66604
8.74724
8.82059
8.88683
8.94664
9.00055
9.04915
9.09302
9.13272
9.16886
9.202
9.23253
9.2606
9.28634
9.30986
9.33128
9.35073
9.36835
9.38426
9.39857
9.41138
9.42275
9.43282
9.44174
9.44966
9.45672
9.46303
9.46869
9.47377
9.47834
9.48247
9.48621
9.48962
9.49275
9.49563
9.49826
9.50063
9.50275
9.50459
9.50614
9.5074
9.50836
9.50899
9.50931
6.1586
6.17429
6.20659
6.25726
6.32878
6.42381
6.54416
6.68902
6.85354
7.0297
7.21056
7.39085
7.56635
7.73459
7.89416
8.0437
8.18245
8.30978
8.42501
8.52847
8.62145
8.70529
8.7809
8.84911
8.91065
8.96604
9.01588
9.06081
9.1014
9.13836
9.17234
9.20376
9.2327
9.25926
9.28354
9.30562
9.32567
9.34383
9.36022
9.37496
9.38813
9.3998
9.41008
9.41916
9.42723
9.43442
9.44084
9.4466
9.45178
9.45644
9.46065
9.46446
9.46795
9.47117
9.47415
9.47687
9.47935
9.48155
9.48348
9.48511
9.48644
9.48744
9.48811
9.48844
5.97605
5.99172
6.02413
6.07545
6.14879
6.24779
6.3754
6.53142
6.71002
6.90073
7.09545
7.28859
7.47538
7.65355
7.82206
7.97941
8.125
8.25829
8.37813
8.48497
8.58061
8.66679
8.74441
8.81437
8.87746
8.93414
8.98504
9.03087
9.07219
9.10979
9.14449
9.17674
9.2065
9.23382
9.2588
9.2815
9.30208
9.32074
9.33757
9.35269
9.36621
9.37813
9.38858
9.39779
9.40596
9.41324
9.41976
9.42561
9.43086
9.43559
9.43986
9.44374
9.44729
9.45059
9.45366
9.45648
9.45905
9.46135
9.46336
9.46507
9.46646
9.46751
9.46821
9.46855
5.79864
5.8141
5.84624
5.89761
5.97203
6.07431
6.20888
6.37662
6.5706
6.77669
6.98566
7.19196
7.38994
7.5778
7.75513
7.92005
8.0723
8.21148
8.33566
8.44539
8.54329
8.63154
8.71091
8.78239
8.84689
8.90469
8.95648
9.00305
9.04492
9.083
9.11831
9.15136
9.1819
9.20992
9.23556
9.25882
9.27988
9.29899
9.31622
9.3317
9.34554
9.35768
9.36825
9.37754
9.38579
9.39314
9.39972
9.40564
9.41096
9.41574
9.42007
9.42399
9.42759
9.43095
9.43411
9.43704
9.4397
9.44209
9.44419
9.44597
9.44743
9.44853
9.44925
9.44961
5.62645
5.64149
5.67296
5.72373
5.7984
5.90308
6.04416
6.22426
6.43527
6.65759
6.88111
7.10093
7.30992
7.50711
7.69317
7.86539
8.02407
8.16921
8.29743
8.40952
8.50919
8.5993
8.68018
8.75297
8.81877
8.87753
8.93003
8.97724
9.01949
9.05784
9.09366
9.12751
9.15879
9.18747
9.21375
9.2375
9.25898
9.27852
9.2961
9.3119
9.32606
9.33839
9.34903
9.35835
9.36666
9.37405
9.38068
9.38666
9.39202
9.39684
9.40121
9.40516
9.40879
9.41221
9.41547
9.41849
9.42124
9.42373
9.42591
9.42777
9.4293
9.43044
9.43119
9.43155
5.45951
5.47395
5.50433
5.55385
5.62782
5.73383
5.88075
6.07388
6.30415
6.54352
6.78169
7.01552
7.23518
7.4412
7.63603
7.81517
7.98001
8.13134
8.26333
8.37709
8.47803
8.56987
8.65202
8.72589
8.79295
8.8525
8.90554
8.95331
8.99576
9.03416
9.07038
9.10509
9.13709
9.16636
9.19327
9.21745
9.23929
9.25924
9.27713
9.29323
9.30772
9.32021
9.33085
9.34016
9.34851
9.35592
9.36257
9.36861
9.374
9.37884
9.38325
9.38722
9.39085
9.39432
9.39769
9.4008
9.40364
9.40623
9.40848
9.41041
9.41202
9.41321
9.41398
9.41435
5.29787
5.31153
5.34043
5.38803
5.46028
5.56632
5.7181
5.92495
6.17751
6.43461
6.68723
6.93581
7.1656
7.37973
7.58355
7.76912
7.93973
8.09781
8.23323
8.34785
8.4495
8.54306
8.62625
8.70094
8.7693
8.82948
8.88285
8.93117
8.97363
9.01183
9.04834
9.08404
9.11672
9.14651
9.17408
9.19862
9.22073
9.24109
9.25924
9.2756
9.29046
9.30308
9.31366
9.32291
9.33129
9.3387
9.34535
9.35144
9.35685
9.3617
9.36614
9.3701
9.37372
9.37724
9.38072
9.38393
9.38685
9.38954
9.39187
9.39387
9.39556
9.3968
9.39758
9.39796
5.14158
5.15429
5.18134
5.22634
5.29578
5.40037
5.5556
5.77676
6.05583
6.33103
6.59741
6.86196
7.10104
7.32224
7.53568
7.72698
7.90281
8.06861
8.20709
8.32154
8.42324
8.51875
8.60268
8.67789
8.74773
8.80832
8.8618
8.91074
8.95301
8.9907
9.02737
9.0643
9.09761
9.12781
9.15611
9.18092
9.2032
9.22402
9.24237
9.25893
9.27425
9.28696
9.2974
9.30653
9.31495
9.32233
9.32895
9.33512
9.34052
9.34536
9.34985
9.35379
9.35736
9.36091
9.36454
9.36783
9.37083
9.37363
9.37603
9.37809
9.37988
9.38117
9.38196
9.38233
4.99065
5.00227
5.02713
5.06889
5.13443
5.23581
5.39259
5.62835
5.93993
6.23299
6.51174
6.79429
7.04138
7.26818
7.49246
7.68848
7.86867
8.04385
8.18487
8.29785
8.39886
8.49684
8.58115
8.65648
8.72817
8.78891
8.8422
8.89199
8.93382
8.97061
9.00729
9.04584
9.07971
9.11016
9.13933
9.1643
9.18662
9.20799
9.22645
9.24314
9.25905
9.27182
9.282
9.29095
9.29944
9.30676
9.31333
9.3196
9.32498
9.32978
9.33434
9.33823
9.34173
9.34529
9.34911
9.35248
9.35553
9.35847
9.36093
9.36305
9.36495
9.36629
9.36708
9.36744
4.84509
4.85551
4.87788
4.91582
4.97633
5.0726
5.22835
5.47841
5.83105
6.14076
6.4294
6.73334
6.98647
7.21674
7.45413
7.65334
7.83655
8.02379
8.16659
8.27646
8.37586
8.47734
8.56151
8.63638
8.71063
8.77115
8.82383
8.87489
8.91601
8.95142
8.98789
9.02868
9.06295
9.09342
9.12373
9.14868
9.17086
9.19298
9.21142
9.22813
9.24485
9.25762
9.26741
9.2761
9.28475
9.29196
9.29843
9.30486
9.31018
9.31491
9.31958
9.3234
9.32677
9.33034
9.3344
9.33784
9.34092
9.34402
9.34652
9.34868
9.35074
9.35212
9.35289
9.35324
4.7049
4.714
4.73366
4.76726
4.8217
4.91077
5.06218
5.32512
5.73109
6.05461
6.3492
6.67996
6.93617
7.16687
7.42116
7.62128
7.80544
8.0089
8.1523
8.25703
8.35366
8.46037
8.54364
8.61723
8.69518
8.75492
8.80642
8.85952
8.89954
8.93297
8.96893
9.01292
9.0473
9.07743
9.10934
9.13402
9.15581
9.17897
9.19721
9.21377
9.23165
9.24433
9.25357
9.26191
9.27084
9.27789
9.28419
9.29087
9.29609
9.30071
9.30555
9.30927
9.31246
9.31599
9.32041
9.32387
9.32696
9.33027
9.33279
9.33496
9.33722
9.33863
9.33938
9.3397
4.57003
4.57776
4.59451
4.62335
4.67077
4.75051
4.89342
5.16588
5.64279
5.97478
6.2693
6.63551
6.89034
7.11709
7.39443
7.59204
7.77399
7.99998
8.14206
8.23917
8.33155
8.44622
8.5274
8.59854
8.68203
8.74014
8.78964
8.84597
8.88437
8.91511
8.95009
8.99869
9.0327
9.06199
9.09622
9.12026
9.1413
9.16603
9.18378
9.19994
9.2195
9.23192
9.24042
9.24829
9.25771
9.2645
9.27054
9.27763
9.28268
9.2871
9.29224
9.29581
9.29874
9.3022
9.30711
9.31056
9.31358
9.3172
9.31969
9.32184
9.32437
9.32579
9.32649
9.32679
4.44043
4.44674
4.46046
4.48424
4.52383
4.59216
4.72157
4.99708
5.57007
5.90147
6.1871
6.602
6.84878
7.0654
7.37532
7.56535
7.74036
7.99824
8.1359
8.22247
8.30861
8.4354
8.5127
8.57966
8.6715
8.7267
8.77304
8.83446
8.87049
8.89769
8.93098
8.98627
9.01914
9.04683
9.0845
9.10735
9.12712
9.15421
9.17107
9.18644
9.20847
9.22038
9.22791
9.23515
9.24537
9.25176
9.25741
9.26514
9.2699
9.27404
9.27965
9.28299
9.28559
9.2889
9.29452
9.29787
9.30075
9.30479
9.30719
9.30926
9.31218
9.31358
9.31421
9.31447
4.31604
4.32091
4.33154
4.35005
4.38119
4.43621
4.54643
4.81367
5.51839
5.83476
6.09894
6.5824
6.81126
7.00908
7.36591
7.54093
7.70208
8.00546
8.13379
8.20654
8.28367
8.42871
8.4994
8.55978
8.66415
8.71451
8.75605
8.82535
8.85787
8.88058
8.91108
8.97605
9.00655
9.0316
9.07439
9.09524
9.11303
9.14368
9.15902
9.17304
9.19866
9.20968
9.21596
9.22237
9.23386
9.23964
9.2447
9.25342
9.25774
9.26145
9.26778
9.27079
9.27296
9.27601
9.28265
9.28577
9.2884
9.29306
9.29527
9.29718
9.30063
9.30197
9.3025
9.30271
4.19675
4.2002
4.20772
4.22087
4.24317
4.28335
4.36834
4.60871
5.49523
5.77449
5.99982
6.58086
6.77749
6.94446
7.3692
7.51852
7.65586
8.0242
8.13553
8.19101
8.25522
8.42734
8.48738
8.53779
8.66077
8.70345
8.73794
8.81911
8.84647
8.8637
8.88972
8.96862
8.99489
9.01583
9.06621
9.08387
9.09869
9.13464
9.1476
9.15944
9.19028
9.19977
9.20453
9.2098
9.22324
9.22809
9.2323
9.24251
9.24615
9.24923
9.25665
9.25918
9.26083
9.26344
9.27154
9.27423
9.27645
9.282
9.2839
9.28552
9.28973
9.29092
9.29132
9.29148
4.08247
4.08451
4.08897
4.09677
4.11008
4.13441
4.18843
4.37277
5.51063
5.72019
5.88304
6.60316
6.74703
6.86675
7.38938
7.49783
7.59738
8.05801
8.14065
8.17562
8.22136
8.43297
8.47648
8.51228
8.66251
8.69338
8.71773
8.81649
8.8362
8.84702
8.86603
8.96476
8.98407
8.99894
9.06041
9.07317
9.08368
9.12742
9.13675
9.14527
9.18358
9.19058
9.19357
9.19728
9.21361
9.2171
9.22008
9.23249
9.2351
9.23729
9.24632
9.24813
9.24917
9.25109
9.26125
9.26324
9.26483
9.27166
9.27304
9.27421
9.27951
9.2804
9.28066
9.28075
3.97308
3.97375
3.97522
3.97779
3.9822
3.99031
4.00902
4.09323
5.57783
5.67091
5.73986
6.65707
6.71927
6.76965
7.43209
7.47856
7.52104
8.11171
8.14825
8.16029
8.1796
8.44785
8.4665
8.48142
8.67092
8.68413
8.6942
8.81844
8.82689
8.8306
8.83886
8.96557
8.97397
8.98016
9.05763
9.06307
9.06744
9.12246
9.12643
9.13003
9.17895
9.18203
9.18306
9.1846
9.20514
9.20662
9.20786
9.22346
9.22457
9.22548
9.23684
9.23762
9.23798
9.23882
9.25188
9.25275
9.25341
9.26208
9.26267
9.26317
9.26998
9.27038
9.27047
9.2705
)
;

boundaryField
{
    left
    {
        type            zeroGradient;
    }
    right
    {
        type            zeroGradient;
    }
    interface
    {
        type            fixedValue;
        value           nonuniform List<scalar> 
64
(
3.91959
3.91959
3.91959
3.91959
3.91959
3.91959
3.91959
3.91959
5.64745
5.64745
5.64745
6.70601
6.70601
6.70601
7.46924
7.46924
7.46924
8.15261
8.15261
8.15261
8.15261
8.46172
8.46172
8.46172
8.67969
8.67969
8.67969
8.82246
8.82246
8.82246
8.82246
8.96909
8.96909
8.96909
9.05817
9.05817
9.05817
9.12139
9.12139
9.12139
9.1779
9.1779
9.1779
9.1779
9.20151
9.20151
9.20151
9.21943
9.21943
9.21943
9.2325
9.2325
9.2325
9.2325
9.24762
9.24762
9.24762
9.25761
9.25761
9.25761
9.26549
9.26549
9.26549
9.26549
)
;
    }
    bottom
    {
        type            fixedValue;
        value           uniform 10;
    }
    defaultFaces
    {
        type            empty;
    }
}


// ************************************************************************* //
