/*--------------------------------*- C++ -*----------------------------------*\
| =========                 |                                                 |
| \\      /  F ield         | OpenFOAM: The Open Source CFD Toolbox           |
|  \\    /   O peration     | Version:  5.x                                   |
|   \\  /    A nd           | Web:      www.OpenFOAM.org                      |
|    \\/     M anipulation  |                                                 |
\*---------------------------------------------------------------------------*/
FoamFile
{
    version     2.0;
    format      ascii;
    class       volScalarField;
    location    "6.6";
    object      gradTy;
}
// * * * * * * * * * * * * * * * * * * * * * * * * * * * * * * * * * * * * * //

dimensions      [0 -1 0 1 0 0 0];

internalField   nonuniform List<scalar> 
2048
(
-20.2056
-20.1093
-19.9178
-19.6333
-19.2593
-18.8009
-18.2649
-17.6596
-16.9951
-16.2826
-15.5339
-14.7614
-13.977
-13.1918
-12.4159
-11.658
-10.9253
-10.2234
-9.55653
-8.92741
-8.33756
-7.78742
-7.27658
-6.80396
-6.36799
-5.96675
-5.59814
-5.25994
-4.94995
-4.666
-4.40608
-4.16828
-3.95088
-3.75233
-3.57121
-3.40626
-3.25632
-3.12035
-2.99735
-2.88639
-2.78659
-2.69708
-2.61705
-2.54569
-2.48224
-2.42594
-2.37611
-2.33208
-2.29324
-2.25901
-2.22888
-2.2024
-2.17916
-2.15881
-2.14103
-2.12559
-2.11226
-2.10089
-2.09134
-2.0835
-2.07732
-2.07272
-2.06967
-2.06815
-20.2835
-20.1864
-19.9931
-19.7057
-19.3276
-18.8637
-18.3209
-17.7075
-17.034
-16.3117
-15.5532
-14.7711
-13.9776
-13.1843
-12.4013
-11.6376
-10.9003
-10.1951
-9.52597
-8.89563
-8.30541
-7.7556
-7.24564
-6.77429
-6.33986
-5.94033
-5.5735
-5.23709
-4.92883
-4.64654
-4.38814
-4.15174
-3.9356
-3.73818
-3.55808
-3.39406
-3.24499
-3.10981
-2.98756
-2.87732
-2.77821
-2.68937
-2.60998
-2.53925
-2.47639
-2.42067
-2.37137
-2.32784
-2.28945
-2.25564
-2.22589
-2.19974
-2.17678
-2.15667
-2.1391
-2.12382
-2.11063
-2.09937
-2.0899
-2.08213
-2.07599
-2.07142
-2.06839
-2.06688
-20.4315
-20.3328
-20.1362
-19.8435
-19.4577
-18.9836
-18.4277
-17.7989
-17.108
-16.3671
-15.5896
-14.7889
-13.9781
-13.1692
-12.3729
-11.5981
-10.8522
-10.1406
-9.4674
-8.83485
-8.24406
-7.695
-7.18679
-6.71795
-6.28651
-5.89028
-5.52687
-5.19389
-4.88896
-4.6098
-4.3543
-4.12054
-3.90678
-3.71149
-3.53332
-3.37105
-3.22358
-3.0899
-2.96907
-2.86018
-2.76237
-2.67479
-2.59663
-2.52708
-2.46536
-2.41071
-2.36243
-2.31984
-2.28232
-2.24929
-2.22025
-2.19472
-2.17231
-2.15266
-2.13547
-2.12051
-2.10758
-2.09651
-2.0872
-2.07954
-2.07348
-2.06897
-2.06597
-2.06448
-20.6413
-20.5406
-20.3396
-20.0397
-19.6433
-19.1547
-18.5803
-17.9293
-17.2132
-16.4454
-15.6404
-14.813
-13.9773
-13.1461
-12.3307
-11.5404
-10.7823
-10.0621
-9.38325
-8.74784
-8.15651
-7.60875
-7.10327
-6.63815
-6.21111
-5.81966
-5.4612
-5.13313
-4.83294
-4.55825
-4.30686
-4.07681
-3.86638
-3.67408
-3.49859
-3.33875
-3.19352
-3.06193
-2.94307
-2.83608
-2.74009
-2.6543
-2.57786
-2.50998
-2.44986
-2.39674
-2.34989
-2.30864
-2.27234
-2.24043
-2.21238
-2.18773
-2.16607
-2.14707
-2.13042
-2.11591
-2.10332
-2.09253
-2.08342
-2.07592
-2.06997
-2.06553
-2.06259
-2.06112
-20.9056
-20.8027
-20.5968
-20.2884
-19.8791
-19.3725
-18.7747
-18.0952
-17.3466
-16.5437
-15.7031
-14.8412
-13.9736
-13.1141
-12.2746
-11.4647
-10.6917
-9.96079
-9.27531
-8.63676
-8.0452
-7.49952
-6.99783
-6.53771
-6.11646
-5.73122
-5.37912
-5.05736
-4.76321
-4.49416
-4.24794
-4.02253
-3.81625
-3.62763
-3.45543
-3.29859
-3.15611
-3.02709
-2.91067
-2.80602
-2.71231
-2.62873
-2.55445
-2.48867
-2.43057
-2.37937
-2.33432
-2.29474
-2.25998
-2.22946
-2.20266
-2.1791
-2.15839
-2.14019
-2.12421
-2.11023
-2.09808
-2.08762
-2.07876
-2.07144
-2.06562
-2.06127
-2.05838
-2.05693
-21.218
-21.1128
-20.9019
-20.5845
-20.1609
-19.6335
-19.0078
-18.2938
-17.5054
-16.6597
-15.7755
-14.8716
-13.9654
-13.072
-12.204
-11.3711
-10.5807
-9.83768
-9.14495
-8.50336
-7.9122
-7.3696
-6.87294
-6.41917
-6.00507
-5.62743
-5.28306
-4.96887
-4.68196
-4.41963
-4.1795
-3.95953
-3.75804
-3.57366
-3.40524
-3.25182
-3.11249
-2.98643
-2.87283
-2.77089
-2.67983
-2.59885
-2.52712
-2.46381
-2.40808
-2.35915
-2.31623
-2.27862
-2.24567
-2.21678
-2.19144
-2.16916
-2.14956
-2.13229
-2.11707
-2.10371
-2.09204
-2.08196
-2.07338
-2.06626
-2.06058
-2.05632
-2.05349
-2.05207
-21.5724
-21.4654
-21.25
-20.9239
-20.4853
-19.9349
-19.2774
-18.523
-17.6875
-16.7909
-15.8552
-14.9019
-13.9509
-13.0184
-12.1178
-11.2591
-10.4494
-9.69339
-8.99325
-8.34911
-7.75933
-7.22106
-6.7308
-6.28478
-5.87925
-5.51055
-5.17518
-4.86979
-4.59122
-4.33658
-4.10335
-3.88946
-3.69328
-3.51355
-3.34928
-3.1996
-3.06373
-2.94093
-2.83043
-2.73151
-2.64341
-2.56534
-2.49648
-2.43597
-2.38296
-2.33659
-2.29608
-2.26071
-2.22979
-2.20275
-2.17904
-2.15821
-2.13984
-2.1236
-2.10923
-2.09655
-2.0854
-2.07571
-2.06742
-2.06051
-2.05497
-2.0508
-2.04803
-2.04663
-21.963
-21.855
-21.6364
-21.3027
-20.8495
-20.2749
-19.582
-18.7814
-17.8912
-16.9353
-15.9398
-14.93
-13.928
-12.9518
-12.0152
-11.1283
-10.298
-9.52842
-8.82113
-8.17532
-7.58822
-7.05578
-6.57345
-6.13667
-5.74108
-5.38263
-5.05749
-4.76203
-4.49282
-4.24675
-4.02113
-3.81385
-3.62336
-3.44857
-3.28866
-3.14294
-3.01075
-2.89141
-2.78426
-2.68859
-2.60369
-2.52881
-2.4631
-2.40569
-2.35567
-2.31214
-2.2743
-2.24137
-2.2127
-2.18768
-2.16577
-2.1465
-2.12947
-2.11435
-2.10089
-2.08891
-2.07831
-2.06902
-2.06102
-2.05431
-2.04891
-2.04483
-2.0421
-2.04073
-22.3844
-22.2766
-22.0568
-21.7178
-21.2515
-20.6522
-19.9208
-19.0681
-18.1151
-17.0909
-16.0271
-14.9533
-13.8947
-12.8706
-11.8952
-10.9783
-10.1264
-9.34313
-8.62935
-7.98318
-7.40041
-6.87554
-6.40281
-5.97678
-5.5925
-5.24554
-4.93178
-4.64733
-4.38846
-4.15177
-3.93436
-3.73407
-3.5495
-3.3798
-3.22438
-3.08274
-2.95436
-2.83864
-2.73498
-2.64274
-2.56125
-2.48977
-2.42748
-2.37344
-2.32666
-2.28622
-2.25124
-2.22097
-2.1947
-2.17185
-2.15187
-2.13428
-2.11868
-2.10474
-2.09222
-2.08097
-2.07092
-2.06202
-2.0543
-2.04778
-2.04249
-2.03849
-2.03581
-2.03446
-22.8309
-22.725
-22.5071
-22.1663
-21.6896
-21.0663
-20.2938
-19.3826
-18.358
-17.2558
-16.1146
-14.9696
-13.849
-12.7734
-11.7568
-10.8086
-9.93458
-9.13786
-8.41864
-7.77381
-7.19739
-6.68208
-6.22073
-5.80697
-5.43529
-5.10098
-4.79969
-4.52726
-4.27966
-4.05311
-3.84442
-3.65138
-3.47283
-3.30823
-3.1573
-3.01978
-2.89527
-2.78327
-2.68321
-2.59451
-2.51657
-2.4487
-2.39005
-2.33961
-2.29633
-2.25918
-2.22727
-2.19979
-2.17608
-2.15552
-2.13757
-2.12176
-2.10765
-2.09494
-2.08338
-2.07287
-2.06334
-2.05483
-2.04736
-2.041
-2.03582
-2.03187
-2.02923
-2.02789
-23.2971
-23.1953
-22.9831
-22.6454
-22.1626
-21.5174
-20.7017
-19.7253
-18.6189
-17.4278
-16.1998
-14.9762
-13.7887
-12.6586
-11.5992
-10.6189
-9.72261
-8.91295
-8.18965
-7.5483
-6.98063
-6.4771
-6.02899
-5.62898
-5.27111
-4.9505
-4.66267
-4.40322
-4.16779
-3.95211
-3.75257
-3.56692
-3.39431
-3.23469
-3.08816
-2.95473
-2.83412
-2.72587
-2.62946
-2.54438
-2.47009
-2.40597
-2.35118
-2.30459
-2.26502
-2.23136
-2.20266
-2.17812
-2.15707
-2.1389
-2.12308
-2.10911
-2.09657
-2.08511
-2.07452
-2.06472
-2.0557
-2.04753
-2.04028
-2.03406
-2.02895
-2.02504
-2.02242
-2.02109
-23.7775
-23.6823
-23.4808
-23.1525
-22.6699
-22.0063
-21.1459
-20.0969
-18.897
-17.6049
-16.2799
-14.9705
-13.7117
-12.525
-11.4218
-10.4091
-9.49066
-8.66869
-7.94299
-7.30773
-6.75165
-6.26232
-5.82935
-5.4445
-5.10149
-4.79549
-4.52201
-4.27645
-4.05409
-3.85004
-3.66002
-3.48169
-3.31481
-3.15992
-3.01759
-2.88815
-2.77143
-2.66694
-2.57421
-2.49277
-2.42217
-2.36194
-2.3112
-2.26869
-2.23304
-2.20304
-2.17769
-2.15619
-2.13788
-2.12219
-2.10857
-2.09651
-2.08557
-2.07538
-2.06575
-2.05663
-2.04809
-2.04022
-2.03315
-2.02701
-2.02194
-2.01806
-2.01545
-2.01413
-24.2664
-24.181
-23.9961
-23.6851
-23.2109
-22.5345
-21.6289
-20.4987
-19.1914
-17.7844
-16.3517
-14.9493
-13.616
-12.3714
-11.2242
-10.1793
-9.23906
-8.40536
-7.67917
-7.05319
-6.51203
-6.03949
-5.62351
-5.25512
-4.9278
-4.63717
-4.37884
-4.14801
-3.93968
-3.74805
-3.56785
-3.39663
-3.23504
-3.08449
-2.9461
-2.82053
-2.70766
-2.60692
-2.51786
-2.44002
-2.37311
-2.31686
-2.2704
-2.23222
-2.20068
-2.17449
-2.15259
-2.1342
-2.11869
-2.10553
-2.09417
-2.08409
-2.07479
-2.06588
-2.05717
-2.04869
-2.04057
-2.03295
-2.02601
-2.01992
-2.01485
-2.01096
-2.00835
-2.00704
-24.7582
-24.686
-24.5245
-24.2405
-23.7853
-23.1042
-22.1541
-20.9329
-19.5011
-17.9634
-16.4118
-14.9097
-13.4993
-12.1972
-11.0063
-9.93004
-8.96837
-8.12319
-7.39858
-6.78581
-6.26345
-5.81037
-5.4132
-5.06237
-4.75131
-4.47662
-4.23413
-4.01881
-3.82552
-3.64725
-3.47713
-3.31252
-3.1556
-3.00891
-2.87407
-2.75225
-2.64323
-2.5462
-2.46076
-2.38647
-2.32316
-2.27096
-2.22901
-2.19542
-2.1682
-2.14594
-2.12757
-2.11232
-2.09966
-2.08907
-2.08002
-2.07196
-2.06435
-2.05671
-2.04888
-2.04098
-2.03321
-2.02578
-2.01892
-2.01284
-2.00772
-2.0038
-2.00118
-1.99988
-25.2473
-25.1921
-25.0616
-24.8158
-24.393
-23.7184
-22.7262
-21.4024
-19.8246
-18.1383
-16.4567
-14.8483
-13.3599
-12.0018
-10.7684
-9.66205
-8.6794
-7.82222
-7.10136
-6.50674
-6.00781
-5.57678
-5.20006
-4.86774
-4.57311
-4.31474
-4.08871
-3.88954
-3.71243
-3.54872
-3.38891
-3.23008
-3.07697
-2.93354
-2.80181
-2.68361
-2.57848
-2.48511
-2.40325
-2.3324
-2.2725
-2.22439
-2.18725
-2.15856
-2.13583
-2.1176
-2.10282
-2.0907
-2.08089
-2.07291
-2.06619
-2.06022
-2.05435
-2.04797
-2.04094
-2.03355
-2.02607
-2.01876
-2.01192
-2.00579
-2.00057
-1.99658
-1.99397
-1.99268
-25.7282
-25.6939
-25.6026
-25.4078
-25.0335
-24.3807
-23.3514
-21.9113
-20.1596
-18.3045
-16.4824
-14.7612
-13.1958
-11.7854
-10.511
-9.37652
-8.37341
-7.50223
-6.78735
-6.21723
-5.74725
-5.34052
-4.98571
-4.67267
-4.39412
-4.15226
-3.94326
-3.76069
-3.60109
-3.45353
-3.30427
-3.14986
-2.99947
-2.85868
-2.72949
-2.61487
-2.51377
-2.42394
-2.34563
-2.27807
-2.22124
-2.17723
-2.14529
-2.12188
-2.10378
-2.08967
-2.07848
-2.06946
-2.06248
-2.05713
-2.05278
-2.04895
-2.04487
-2.03975
-2.03342
-2.02643
-2.01918
-2.01191
-2.00504
-1.9988
-1.99343
-1.98935
-1.98673
-1.98548
-26.1957
-26.186
-26.1425
-26.0127
-25.7063
-25.0951
-24.0378
-22.465
-20.5024
-18.4565
-16.4852
-14.6445
-13.0055
-11.5492
-10.2345
-9.07506
-8.05226
-7.1625
-6.45582
-5.91872
-5.48436
-5.10334
-4.77168
-4.47863
-4.215
-3.98978
-3.79845
-3.63249
-3.49199
-3.36284
-3.22439
-3.07225
-2.92326
-2.78456
-2.65716
-2.5462
-2.44942
-2.36292
-2.28817
-2.22377
-2.16943
-2.12951
-2.1033
-2.08562
-2.07225
-2.06229
-2.05472
-2.04868
-2.0445
-2.04179
-2.03981
-2.0382
-2.03601
-2.03211
-2.02634
-2.01967
-2.01256
-2.00526
-1.99831
-1.99192
-1.9863
-1.98209
-1.9795
-1.97831
-26.6447
-26.6635
-26.676
-26.6261
-26.4099
-25.8662
-24.7957
-23.0711
-20.8469
-18.5872
-16.4623
-14.4931
-12.7874
-11.2952
-9.93945
-8.75976
-7.7188
-6.80152
-6.10535
-5.61291
-5.22234
-4.86674
-4.55933
-4.28723
-4.0361
-3.82768
-3.65493
-3.50487
-3.3854
-3.27789
-3.15066
-2.9974
-2.84833
-2.71143
-2.58474
-2.4777
-2.38582
-2.30224
-2.23116
-2.16983
-2.11702
-2.08115
-2.06144
-2.05006
-2.04139
-2.03562
-2.03166
-2.02841
-2.027
-2.02696
-2.02732
-2.02801
-2.02785
-2.02516
-2.01973
-2.01326
-2.00626
-1.9988
-1.99174
-1.98517
-1.97919
-1.97482
-1.97229
-1.97121
-27.0709
-27.1212
-27.1977
-27.2429
-27.1419
-26.6986
-25.6382
-23.7407
-21.1831
-18.6882
-16.4122
-14.3009
-12.5404
-11.0276
-9.62554
-8.43313
-7.37747
-6.41648
-5.73348
-5.30203
-4.96534
-4.63175
-4.34986
-4.10034
-3.85732
-3.66621
-3.51355
-3.3773
-3.2813
-3.20017
-3.08479
-2.92506
-2.77447
-2.63962
-2.51193
-2.40944
-2.32346
-2.24193
-2.17485
-2.11668
-2.06382
-2.03197
-2.01988
-2.01554
-2.01133
-2.00976
-2.00946
-2.00868
-2.00999
-2.01268
-2.01529
-2.01841
-2.02048
-2.01899
-2.01358
-2.00722
-2.0003
-1.99254
-1.98536
-1.97858
-1.97208
-1.96752
-1.96513
-1.96421
-27.4702
-27.5547
-27.7019
-27.8568
-27.8986
-27.5963
-26.5817
-24.4895
-21.4946
-18.7488
-16.3371
-14.0595
-12.2633
-10.7532
-9.2908
-8.09813
-7.03524
-6.00251
-5.33645
-4.989
-4.71891
-4.3985
-4.14418
-3.92047
-3.67781
-3.50545
-3.37559
-3.24869
-3.1793
-3.13144
-3.02904
-2.8544
-2.70124
-2.56974
-2.43814
-2.34142
-2.26307
-2.18187
-2.11951
-2.06494
-2.00947
-1.98166
-1.97882
-1.98247
-1.98214
-1.9848
-1.98829
-1.98946
-1.99347
-1.99903
-2.00368
-2.00938
-2.014
-2.01372
-2.00783
-2.00152
-1.99473
-1.98644
-1.97918
-1.97223
-1.96496
-1.96016
-1.95801
-1.95735
-27.8394
-27.9597
-28.1831
-28.4612
-28.6743
-28.5622
-27.6461
-25.3412
-21.7556
-18.7566
-16.2447
-13.7562
-11.9552
-10.4833
-8.93015
-7.75809
-6.70311
-5.5515
-4.90881
-4.67787
-4.49065
-4.16552
-3.94285
-3.75121
-3.49557
-3.34529
-3.24316
-3.11706
-3.07853
-3.07389
-2.98655
-2.78361
-2.62795
-2.50288
-2.36234
-2.2736
-2.2057
-2.12158
-2.06539
-2.01556
-1.95333
-1.92979
-1.93857
-1.95142
-1.95376
-1.96078
-1.96837
-1.97063
-1.97743
-1.98609
-1.99241
-2.00089
-2.00853
-2.0095
-2.0024
-1.99612
-1.98961
-1.98044
-1.9732
-1.96618
-1.95776
-1.95272
-1.95098
-1.95069
-28.176
-28.3329
-28.6358
-29.0482
-29.4612
-29.5969
-28.8552
-26.3315
-21.9254
-18.6971
-16.1527
-13.3718
-11.6152
-10.2359
-8.53296
-7.41666
-6.39836
-5.05032
-4.44322
-4.37416
-4.29113
-3.92869
-3.74604
-3.59804
-3.30687
-3.18549
-3.11971
-2.97918
-2.97751
-3.0302
-2.96174
-2.70948
-2.55365
-2.44102
-2.28274
-2.20585
-2.15302
-2.0601
-2.01274
-1.97001
-1.89432
-1.87572
-1.89949
-1.92315
-1.92597
-1.93773
-1.95004
-1.95199
-1.96183
-1.97402
-1.98134
-1.99288
-2.0042
-2.00658
-1.99708
-1.99099
-1.98507
-1.97444
-1.96746
-1.96058
-1.9504
-1.94515
-1.94405
-1.94428
-28.4781
-28.6714
-29.0551
-29.6097
-30.2489
-30.6973
-30.2356
-27.5146
-21.9409
-18.5543
-16.0937
-12.8758
-11.2424
-10.0395
-8.07965
-7.0777
-6.14784
-4.4781
-3.9303
-4.08529
-4.1352
-3.67976
-3.55346
-3.46941
-3.10516
-3.02567
-3.01094
-2.82995
-2.87411
-3.00363
-2.96105
-2.62657
-2.47718
-2.38753
-2.19643
-2.13804
-2.10764
-1.99561
-1.9618
-1.93054
-1.83074
-1.8187
-1.86211
-1.89873
-1.89828
-1.91563
-1.93381
-1.93318
-1.94662
-1.9631
-1.97022
-1.98526
-2.0012
-2.00527
-1.99159
-1.98606
-1.98132
-1.96824
-1.96195
-1.95564
-1.94276
-1.93738
-1.93726
-1.93819
-28.7448
-28.973
-29.4365
-30.1371
-31.0246
-31.8548
-31.8159
-28.9731
-21.7058
-18.3113
-16.1231
-12.2199
-10.8362
-9.93776
-7.53653
-6.74515
-5.99256
-3.80228
-3.35895
-3.82095
-4.04387
-3.40414
-3.36445
-3.37838
-2.87971
-2.86538
-2.92589
-2.66147
-2.76545
-2.998
-2.99384
-2.52618
-2.39721
-2.34795
-2.09871
-2.06997
-2.07358
-1.92501
-1.91281
-1.90064
-1.75989
-1.75781
-1.82716
-1.87963
-1.86979
-1.89441
-1.92045
-1.91361
-1.93175
-1.95373
-1.95871
-1.97789
-1.9997
-2.00607
-1.98542
-1.98128
-1.97871
-1.96156
-1.95671
-1.95168
-1.93461
-1.92938
-1.93066
-1.93248
-28.9758
-29.2367
-29.7763
-30.6219
-31.7729
-33.0538
-33.6224
-30.8315
-21.0761
-17.9519
-16.3298
-11.3288
-10.3966
-9.99734
-6.84875
-6.42296
-5.99418
-2.97298
-2.71731
-3.59311
-4.04681
-3.07789
-3.17807
-3.34492
-2.61347
-2.70421
-2.87848
-2.46181
-2.64808
-3.01752
-3.07377
-2.39481
-2.31236
-2.331
-1.98223
-2.0015
-2.05693
-1.84327
-1.86598
-1.8855
-1.67766
-1.69209
-1.79553
-1.86792
-1.83898
-1.87401
-1.91115
-1.89232
-1.91715
-1.94658
-1.94625
-1.97059
-1.99993
-2.0097
-1.97782
-1.97658
-1.97776
-1.95391
-1.95174
-1.94917
-1.9256
-1.92106
-1.92432
-1.92724
-29.1714
-29.4619
-30.0718
-31.0562
-32.4762
-34.2699
-35.6739
-33.2758
-19.8395
-17.4635
-16.85
-10.087
-9.9248
-10.317
-5.93058
-6.11507
-6.24354
-1.91504
-1.99474
-3.41566
-4.18586
-2.66375
-2.99345
-3.39886
-2.28024
-2.54206
-2.88965
-2.21319
-2.51827
-3.06635
-3.22069
-2.21218
-2.22153
-2.34993
-1.83565
-1.93257
-2.06678
-1.74255
-1.82154
-1.89282
-1.57778
-1.62071
-1.7683
-1.86648
-1.80346
-1.85435
-1.90766
-1.86783
-1.9028
-1.94265
-1.93202
-1.96319
-2.00209
-2.01721
-1.96768
-1.97189
-1.97929
-1.94456
-1.94707
-1.94883
-1.9152
-1.91241
-1.91833
-1.92253
-29.3329
-29.6492
-30.3214
-31.4332
-33.1163
-35.4681
-37.9715
-36.5803
-17.6889
-16.841
-17.8849
-8.32158
-9.42454
-11.0408
-4.65258
-5.8255
-6.87192
-0.517262
-1.18547
-3.30309
-4.51963
-2.10579
-2.81024
-3.58381
-1.84082
-2.37942
-2.98995
-1.88953
-2.37279
-3.14778
-3.46309
-1.94854
-2.1242
-2.42429
-1.64205
-1.8634
-2.11636
-1.61102
-1.77977
-1.93368
-1.45098
-1.54329
-1.74666
-1.87929
-1.75959
-1.8354
-1.91254
-1.83794
-1.8887
-1.94336
-1.91481
-1.9555
-2.0063
-2.03011
-1.95334
-1.96719
-1.9845
-1.93242
-1.94272
-1.95165
-1.9026
-1.90341
-1.91279
-1.91843
-29.4618
-29.7995
-30.5245
-31.7479
-33.6749
-36.6029
-40.4841
-41.1422
-14.1875
-16.0927
-19.7231
-5.77919
-8.90448
-12.3735
-2.82523
-5.5587
-8.06532
1.38193
-0.294357
-3.26794
-5.12971
-1.32272
-2.62943
-3.96218
-1.238
-2.21807
-3.22284
-1.45322
-2.21016
-3.2628
-3.84156
-1.56116
-2.02109
-2.58206
-1.37662
-1.79472
-2.22453
-1.43135
-1.74107
-2.02377
-1.28373
-1.46032
-1.7317
-1.91182
-1.70207
-1.81722
-1.92942
-1.79937
-1.87496
-1.95077
-1.89288
-1.94738
-2.01257
-2.05057
-1.93243
-1.96246
-1.99509
-1.91587
-1.93872
-1.95904
-1.88662
-1.89417
-1.90784
-1.91498
-29.56
-29.9147
-30.6819
-31.9969
-34.1355
-37.6191
-43.1273
-47.5278
-8.72505
-15.2488
-22.7675
-2.09771
-8.38131
-14.6013
-0.178398
-5.32017
-10.0821
4.013
0.654335
-3.31633
-6.12858
-0.199475
-2.45451
-4.62115
-0.390298
-2.06184
-3.64874
-0.850938
-2.03272
-3.40791
-4.41302
-0.990063
-1.91496
-2.86229
-1.00391
-1.72815
-2.41757
-1.1788
-1.70606
-2.18486
-1.05667
-1.37393
-1.72415
-1.97153
-1.62329
-1.80007
-1.96333
-1.74746
-1.86182
-1.96766
-1.86369
-1.93885
-2.0206
-2.0816
-1.9016
-1.95777
-2.01343
-1.89258
-1.9351
-1.97292
-1.86549
-1.88489
-1.90358
-1.91219
-29.63
-29.9969
-30.7954
-32.1795
-34.4853
-38.4557
-45.7344
-56.5294
-0.464043
-14.3729
-27.567
3.22875
-7.88445
-18.1147
3.6634
-5.11749
-13.2742
7.6986
1.60455
-3.4411
-7.66972
1.42291
-2.29295
-5.67998
0.815779
-1.91792
-4.3498
-0.00830488
-1.84966
-3.57197
-5.25626
-0.1526
-1.81175
-3.31821
-0.474443
-1.66671
-2.73133
-0.818945
-1.67576
-2.44655
-0.742629
-1.28889
-1.72382
-2.06851
-1.51275
-1.7845
-2.02111
-1.67564
-1.84975
-1.99783
-1.82372
-1.93017
-2.02964
-2.12737
-1.85625
-1.95327
-2.04275
-1.85932
-1.93191
-1.99588
-1.83674
-1.87602
-1.90013
-1.91004
-29.6742
-30.049
-30.8676
-32.2972
-34.7173
-39.0529
-48.0185
-69.2356
11.7253
-13.5763
-34.8529
10.891
-7.46242
-23.4366
9.21015
-4.96182
-18.1124
12.8821
2.45156
-3.61174
-9.9602
3.75941
-2.15827
-7.29825
2.53484
-1.79848
-5.43532
1.17655
-1.68123
-3.73175
-6.47865
1.06288
-1.72202
-4.02071
0.279381
-1.61552
-3.21368
-0.304943
-1.65185
-2.84831
-0.304219
-1.21398
-1.72893
-2.21627
-1.35612
-1.77154
-2.11185
-1.57493
-1.83959
-2.04623
-1.76811
-1.92209
-2.03824
-2.19357
-1.79012
-1.94923
-2.08734
-1.81166
-1.92923
-2.03136
-1.79693
-1.86829
-1.89753
-1.90844
-29.6952
-30.0738
-30.9021
-32.3538
-34.8309
-39.3635
-49.5235
-87.115
29.3405
-13.0368
-45.5783
21.812
-7.19105
-31.2522
17.1394
-4.87013
-25.2146
20.1615
3.01992
-3.76076
-13.276
7.09478
-2.07273
-9.68541
4.97301
-1.723
-7.04811
2.84056
-1.56464
-3.84634
-8.22447
2.80429
-1.66314
-5.06249
1.34764
-1.58302
-3.92763
0.425253
-1.63734
-3.4422
0.308736
-1.16415
-1.73541
-2.43306
-1.13476
-1.76326
-2.24774
-1.4336
-1.83303
-2.11963
-1.69064
-1.91638
-2.04424
-2.28813
-1.69529
-1.94646
-2.15313
-1.74398
-1.92745
-2.0841
-1.74167
-1.86318
-1.89602
-1.90751
)
;

boundaryField
{
    left
    {
        type            calculated;
        value           nonuniform List<scalar> 
32
(
-20.2056
-20.2835
-20.4315
-20.6413
-20.9056
-21.218
-21.5724
-21.963
-22.3844
-22.8309
-23.2971
-23.7775
-24.2664
-24.7582
-25.2473
-25.7282
-26.1957
-26.6447
-27.0709
-27.4702
-27.8394
-28.176
-28.4781
-28.7448
-28.9758
-29.1714
-29.3329
-29.4618
-29.56
-29.63
-29.6742
-29.6952
)
;
    }
    right
    {
        type            calculated;
        value           nonuniform List<scalar> 
32
(
-2.06815
-2.06688
-2.06448
-2.06112
-2.05693
-2.05207
-2.04663
-2.04073
-2.03446
-2.02789
-2.02109
-2.01413
-2.00704
-1.99988
-1.99268
-1.98548
-1.97831
-1.97121
-1.96421
-1.95735
-1.95069
-1.94428
-1.93819
-1.93248
-1.92724
-1.92253
-1.91843
-1.91498
-1.91219
-1.91004
-1.90844
-1.90751
)
;
    }
    interface
    {
        type            calculated;
        value           nonuniform List<scalar> 
64
(
-29.7002
-30.0797
-30.9104
-32.3674
-34.8585
-39.4426
-50.0121
-97.5581
39.7172
-12.8584
-51.9353
28.2186
-7.10451
-35.8804
21.7958
-4.84283
-29.4192
24.4107
3.2073
-3.81865
-15.2295
9.05259
-2.04567
-11.1008
6.4012
-1.69924
-8.00647
3.81191
-1.52522
-3.88592
-9.24887
3.82746
-1.64409
-5.68129
1.97317
-1.57276
-4.35143
0.853188
-1.63291
-3.79458
0.665996
-1.14784
-1.73834
-2.56136
-1.00527
-1.76064
-2.32873
-1.35115
-1.83094
-2.16356
-1.64558
-1.91443
-2.04628
-2.34368
-1.6396
-1.94555
-2.19219
-1.70436
-1.92689
-2.11549
-1.70957
-1.86152
-1.89558
-1.90725
)
;
    }
    bottom
    {
        type            calculated;
        value           nonuniform List<scalar> 
64
(
-20.1853
-20.0893
-19.8982
-19.6145
-19.2415
-18.7846
-18.2503
-17.6472
-16.985
-16.275
-15.5289
-14.7589
-13.9768
-13.1937
-12.4196
-11.6632
-10.9317
-10.2307
-9.56446
-8.93567
-8.34592
-7.7957
-7.28465
-6.8117
-6.37533
-5.97365
-5.60457
-5.26591
-4.95547
-4.6711
-4.41077
-4.17261
-3.95488
-3.75603
-3.57464
-3.40945
-3.25929
-3.12311
-2.99991
-2.88876
-2.78878
-2.6991
-2.6189
-2.54738
-2.48377
-2.42733
-2.37735
-2.33319
-2.29423
-2.25989
-2.22967
-2.2031
-2.17979
-2.15937
-2.14154
-2.12605
-2.11269
-2.10129
-2.09171
-2.08386
-2.07766
-2.07306
-2.07
-2.06848
)
;
    }
    defaultFaces
    {
        type            empty;
    }
}


// ************************************************************************* //
