/*--------------------------------*- C++ -*----------------------------------*\
| =========                 |                                                 |
| \\      /  F ield         | OpenFOAM: The Open Source CFD Toolbox           |
|  \\    /   O peration     | Version:  5.x                                   |
|   \\  /    A nd           | Web:      www.OpenFOAM.org                      |
|    \\/     M anipulation  |                                                 |
\*---------------------------------------------------------------------------*/
FoamFile
{
    version     2.0;
    format      ascii;
    class       volScalarField;
    location    "6.6";
    object      T;
}
// * * * * * * * * * * * * * * * * * * * * * * * * * * * * * * * * * * * * * //

dimensions      [0 0 0 1 0 0 0];

internalField   nonuniform List<scalar> 
2048
(
9.85498
9.85567
9.85705
9.85908
9.86176
9.86505
9.86888
9.87322
9.87798
9.88308
9.88844
9.89397
9.89959
9.90521
9.91077
9.91621
9.92146
9.9265
9.93129
9.9358
9.94004
9.94399
9.94767
9.95106
9.9542
9.95708
9.95974
9.96217
9.9644
9.96644
9.96831
9.97002
9.97159
9.97302
9.97432
9.97551
9.97658
9.97756
9.97845
9.97925
9.97996
9.98061
9.98119
9.9817
9.98216
9.98256
9.98292
9.98324
9.98352
9.98376
9.98398
9.98417
9.98434
9.98449
9.98461
9.98473
9.98482
9.9849
9.98497
9.98503
9.98507
9.98511
9.98513
9.98514
9.57072
9.57277
9.57684
9.58289
9.59084
9.60058
9.61198
9.62485
9.63898
9.65413
9.67005
9.68647
9.70315
9.71984
9.73633
9.75244
9.76801
9.78292
9.79709
9.81045
9.82298
9.83466
9.84551
9.85555
9.8648
9.87332
9.88115
9.88833
9.89491
9.90094
9.90645
9.9115
9.91612
9.92033
9.92418
9.92768
9.93086
9.93375
9.93636
9.93871
9.94083
9.94273
9.94443
9.94594
9.94729
9.94849
9.94954
9.95048
9.9513
9.95203
9.95267
9.95323
9.95372
9.95415
9.95453
9.95486
9.95514
9.95538
9.95559
9.95575
9.95588
9.95598
9.95605
9.95608
9.29734
9.3007
9.30739
9.31733
9.3304
9.34644
9.3652
9.38639
9.40966
9.43461
9.46082
9.48786
9.51529
9.54272
9.56981
9.59623
9.62176
9.64618
9.66937
9.69121
9.71168
9.73075
9.74844
9.7648
9.77988
9.79375
9.80649
9.81817
9.82888
9.83868
9.84766
9.85587
9.86337
9.87023
9.87649
9.88218
9.88736
9.89206
9.8963
9.90013
9.90358
9.90666
9.90942
9.91188
9.91407
9.91601
9.91772
9.91923
9.92057
9.92175
9.92278
9.92369
9.92449
9.92519
9.9258
9.92633
9.92679
9.92718
9.92751
9.92778
9.928
9.92815
9.92826
9.92831
9.0336
9.03824
9.04748
9.06122
9.07931
9.10152
9.12752
9.15692
9.18921
9.22383
9.26018
9.29765
9.33564
9.37359
9.41102
9.44749
9.48267
9.51629
9.54815
9.57815
9.60621
9.63233
9.65654
9.6789
9.6995
9.71844
9.73582
9.75176
9.76636
9.77972
9.79196
9.80315
9.81339
9.82274
9.83127
9.83904
9.8461
9.8525
9.85829
9.86351
9.8682
9.8724
9.87616
9.8795
9.88247
9.8851
9.88743
9.88948
9.89129
9.89289
9.89429
9.89552
9.89661
9.89756
9.89838
9.89911
9.89973
9.90026
9.90071
9.90108
9.90137
9.90158
9.90173
9.9018
8.77845
8.78434
8.79608
8.81356
8.83659
8.86491
8.8981
8.93566
8.97692
9.02117
9.06761
9.11544
9.16387
9.2122
9.25977
9.30607
9.35065
9.39318
9.43343
9.47125
9.50658
9.53942
9.56982
9.59788
9.62369
9.64741
9.66916
9.68909
9.70735
9.72406
9.73936
9.75336
9.76615
9.77785
9.78852
9.79823
9.80706
9.81507
9.8223
9.82882
9.83468
9.83992
9.8446
9.84877
9.85247
9.85574
9.85864
9.86119
9.86344
9.86542
9.86716
9.86869
9.87003
9.87121
9.87224
9.87313
9.87391
9.87457
9.87513
9.87559
9.87595
9.87622
9.8764
9.87649
8.53106
8.53817
8.55236
8.57351
8.60144
8.63582
8.6762
8.72192
8.7722
8.82611
8.88266
8.94084
8.99968
9.05829
9.11589
9.17183
9.22559
9.27678
9.32512
9.37047
9.41275
9.45199
9.48826
9.52169
9.55242
9.58062
9.60647
9.63014
9.65182
9.67165
9.68981
9.70643
9.72162
9.73551
9.74818
9.75972
9.77021
9.77971
9.7883
9.79604
9.80298
9.80919
9.81473
9.81966
9.82403
9.82789
9.8313
9.83431
9.83695
9.83928
9.84133
9.84313
9.84471
9.8461
9.84731
9.84837
9.84928
9.85007
9.85073
9.85127
9.8517
9.85202
9.85224
9.85234
8.29072
8.29903
8.31561
8.34039
8.37316
8.41359
8.46116
8.51512
8.57451
8.63819
8.70494
8.77354
8.84279
8.91165
8.97918
9.04462
9.10736
9.16697
9.22314
9.27571
9.32464
9.36995
9.41178
9.45026
9.4856
9.518
9.54767
9.57483
9.59968
9.62243
9.64325
9.66231
9.67974
9.69567
9.71021
9.72346
9.73549
9.74639
9.75624
9.76511
9.77306
9.78017
9.7865
9.79212
9.7971
9.8015
9.80538
9.8088
9.8118
9.81445
9.81677
9.81881
9.82061
9.82218
9.82356
9.82477
9.82581
9.8267
9.82746
9.82808
9.82858
9.82894
9.82919
9.82931
8.05688
8.06634
8.08526
8.11358
8.15115
8.19763
8.25245
8.31475
8.38338
8.45699
8.5341
8.61323
8.69296
8.77206
8.84945
8.92427
8.99582
9.06363
9.12736
9.18687
9.24212
9.29319
9.34025
9.38348
9.42313
9.45944
9.49266
9.52305
9.55085
9.57629
9.59958
9.6209
9.64041
9.65825
9.67453
9.68936
9.70284
9.71504
9.72606
9.73597
9.74486
9.75279
9.75984
9.7661
9.77163
9.77651
9.78082
9.7846
9.78793
9.79085
9.79342
9.79568
9.79766
9.79941
9.80094
9.80227
9.80343
9.80443
9.80528
9.80597
9.80652
9.80694
9.80721
9.80735
7.82907
7.83965
7.86083
7.89262
7.93491
7.98742
8.04955
8.12033
8.19841
8.28218
8.36985
8.45966
8.54997
8.63934
8.72655
8.81062
8.89082
8.9666
9.03764
9.10379
9.16506
9.22157
9.27354
9.32121
9.36487
9.40481
9.44132
9.47469
9.5052
9.53313
9.55869
9.58211
9.60354
9.62315
9.64106
9.65737
9.67218
9.68559
9.6977
9.70857
9.71831
9.72699
9.73471
9.74154
9.74757
9.75288
9.75756
9.76167
9.76528
9.76845
9.77123
9.77368
9.77583
9.77773
9.77939
9.78085
9.78211
9.7832
9.78413
9.78489
9.7855
9.78595
9.78625
9.78641
7.60695
7.61858
7.64192
7.67706
7.724
7.78252
7.85203
7.93146
8.01924
8.11343
8.21191
8.31261
8.41361
8.51329
8.61028
8.70352
8.7922
8.87575
8.95383
9.02633
9.0933
9.15492
9.21148
9.26329
9.31066
9.35395
9.39349
9.4296
9.4626
9.4928
9.52046
9.54581
9.56903
9.59028
9.60969
9.62737
9.64343
9.65796
9.67107
9.68283
9.69335
9.70272
9.71103
9.71837
9.72485
9.73055
9.73555
9.73994
9.7438
9.74718
9.75016
9.75277
9.75507
9.75709
9.75887
9.76044
9.7618
9.76297
9.76397
9.7648
9.76546
9.76595
9.76628
9.76644
7.39024
7.40286
7.42823
7.46657
7.51803
7.58251
7.65949
7.74777
7.84553
7.95047
8.06006
8.17187
8.28371
8.39374
8.50049
8.60279
8.69978
8.79088
8.87575
8.95429
9.02664
9.09307
9.1539
9.20953
9.26034
9.30671
9.34901
9.38763
9.4229
9.45518
9.48476
9.51189
9.53676
9.55954
9.58034
9.5993
9.61651
9.63207
9.6461
9.65868
9.66992
9.67991
9.68875
9.69655
9.70341
9.70944
9.71473
9.71937
9.72344
9.72701
9.73014
9.73289
9.73531
9.73745
9.73934
9.74099
9.74244
9.7437
9.74477
9.74565
9.74636
9.74689
9.74724
9.74742
7.17875
7.19225
7.2195
7.26084
7.31665
7.38703
7.47153
7.5689
7.677
7.79307
7.9141
8.03728
8.1601
8.28054
8.397
8.50826
8.61341
8.71184
8.80322
8.88751
8.96492
9.0358
9.1006
9.15976
9.21372
9.26291
9.30774
9.34862
9.38596
9.42012
9.45145
9.48022
9.50661
9.5308
9.55291
9.57304
9.59132
9.60784
9.62271
9.63605
9.64793
9.65848
9.6678
9.676
9.6832
9.68952
9.69505
9.6999
9.70414
9.70786
9.71112
9.71399
9.71652
9.71876
9.72073
9.72248
9.724
9.72533
9.72646
9.7274
9.72816
9.72872
9.7291
9.72929
6.97232
6.98661
7.01553
7.05964
7.11959
7.19574
7.28783
7.39454
7.51338
7.64101
7.77387
7.90868
8.04264
8.17352
8.29965
8.41975
8.53289
8.63843
8.73606
8.82577
8.9079
8.98293
9.05138
9.11378
9.17062
9.22237
9.26949
9.31242
9.35161
9.38748
9.4204
9.45066
9.47847
9.50397
9.52728
9.54851
9.56777
9.58518
9.60083
9.61485
9.62733
9.63837
9.64811
9.65666
9.66415
9.67071
9.67644
9.68146
9.68585
9.68969
9.69306
9.69603
9.69865
9.70096
9.70302
9.70484
9.70644
9.70783
9.70902
9.71001
9.71081
9.71141
9.71181
9.71201
6.77089
6.78583
6.81619
6.86277
6.92655
7.0083
7.10802
7.22437
7.35442
7.49412
7.63922
7.78595
7.93118
8.07253
8.20827
8.33708
8.45804
8.57048
8.67407
8.76889
8.85539
8.93423
9.00603
9.07138
9.13085
9.18492
9.2341
9.27886
9.3197
9.3571
9.39146
9.4231
9.45221
9.47893
9.50336
9.52561
9.54578
9.564
9.58037
9.59502
9.60803
9.61952
9.62962
9.63846
9.6462
9.65296
9.65886
9.66401
9.66852
9.67246
9.67591
9.67895
9.68164
9.68402
9.68615
9.68803
9.6897
9.69115
9.6924
9.69344
9.69428
9.69491
9.69533
9.69554
6.57439
6.58985
6.62137
6.67005
6.73731
6.82442
6.93177
7.0581
7.19993
7.35226
7.51004
7.66898
7.8256
7.97741
8.12267
8.26007
8.38866
8.50779
8.61707
8.71664
8.80717
8.88948
8.96432
9.03236
9.09421
9.15038
9.20139
9.24779
9.29009
9.32883
9.36448
9.3974
9.42773
9.45558
9.48106
9.50425
9.52527
9.54423
9.56126
9.57647
9.58997
9.60186
9.61227
9.62136
9.62929
9.6362
9.64224
9.6475
9.65209
9.65611
9.65962
9.66272
9.66546
9.6679
9.67008
9.67202
9.67375
9.67526
9.67656
9.67765
9.67853
9.67919
9.67964
9.67986
6.38284
6.39864
6.431
6.48137
6.55166
6.64378
6.75875
6.89543
7.04972
7.21531
7.38624
7.55768
7.72577
7.88799
8.04268
8.1885
8.32456
8.45018
8.56485
8.66881
8.76299
8.84846
8.92605
8.99652
9.06051
9.11856
9.17121
9.21905
9.26261
9.30252
9.33934
9.37343
9.4049
9.43382
9.46028
9.48434
9.50613
9.52579
9.54342
9.55915
9.57308
9.58532
9.59599
9.60527
9.61336
9.6204
9.62653
9.63187
9.63653
9.64059
9.64415
9.64728
9.65006
9.65254
9.65477
9.65677
9.65855
9.66012
9.66147
9.66261
9.66353
9.66422
9.66468
9.66491
6.19625
6.21221
6.24508
6.29663
6.36941
6.46611
6.58859
6.73607
6.90363
7.08319
7.26774
7.45196
7.63158
7.80411
7.96811
8.12218
8.26551
8.39745
8.51723
8.62519
8.72263
8.81093
8.89099
8.96364
9.02958
9.08931
9.1434
9.19248
9.23713
9.27804
9.3159
9.35108
9.38362
9.41355
9.44092
9.4658
9.4883
9.50859
9.52677
9.54297
9.55731
9.56984
9.58072
9.59016
9.59835
9.60548
9.61168
9.61707
9.62177
9.62586
9.62944
9.63259
9.63539
9.63791
9.64018
9.64223
9.64406
9.64568
9.64709
9.64827
9.64923
9.64995
9.65043
9.65067
6.01466
6.0306
6.06358
6.11578
6.1904
6.29112
6.42094
6.57971
6.76155
6.95587
7.15449
7.35179
7.54291
7.7256
7.89876
8.06088
8.21131
8.34943
8.47404
8.58556
8.68585
8.77668
8.85894
8.93353
9.00123
9.06245
9.11779
9.16796
9.21351
9.25524
9.294
9.33023
9.36379
9.39467
9.42291
9.44854
9.47169
9.49256
9.51124
9.52788
9.54258
9.55537
9.56641
9.57595
9.58422
9.5914
9.59764
9.60307
9.60778
9.61188
9.61547
9.61862
9.62143
9.62397
9.62628
9.62838
9.63026
9.63193
9.63338
9.63461
9.6356
9.63635
9.63685
9.6371
5.83813
5.85384
5.88655
5.93879
6.01449
6.11851
6.25538
6.42602
6.62343
6.83334
7.04643
7.25711
7.45964
7.65223
7.83445
8.00437
8.1617
8.30596
8.4351
8.54969
8.65239
8.74547
8.82967
8.90598
8.9753
9.03783
9.09424
9.14535
9.19161
9.23396
9.27353
9.31077
9.34532
9.37709
9.40617
9.43248
9.45622
9.47763
9.49677
9.5138
9.52884
9.54186
9.553
9.56259
9.57091
9.57811
9.58436
9.5898
9.59452
9.59861
9.60219
9.60533
9.60813
9.61068
9.61303
9.61517
9.61709
9.61881
9.62031
9.62158
9.62262
9.6234
9.62391
9.62417
5.66672
5.68201
5.71402
5.76566
5.84159
5.94803
6.09149
6.27462
6.48929
6.71564
6.9435
7.16792
7.38166
7.58379
7.77498
7.95242
8.11642
8.26689
8.40028
8.51735
8.62198
8.7171
8.80299
8.88079
8.95162
9.0153
9.07261
9.12453
9.17131
9.21409
9.25434
9.29262
9.32811
9.36072
9.39061
9.41755
9.44181
9.46373
9.48328
9.50066
9.51604
9.52925
9.54044
9.55003
9.55836
9.56556
9.5718
9.57724
9.58194
9.58601
9.58956
9.59268
9.59546
9.59802
9.6004
9.60257
9.60454
9.60631
9.60785
9.60917
9.61025
9.61106
9.61159
9.61185
5.50049
5.51517
5.54608
5.59643
5.67164
5.7794
5.92875
6.12508
6.35924
6.60287
6.84559
7.08424
7.30885
7.52001
7.72019
7.90478
8.07517
8.23211
8.36945
8.48831
8.59435
8.69137
8.7787
8.85776
8.93006
8.99471
9.05273
9.10539
9.15251
9.19546
9.23629
9.27567
9.3121
9.34549
9.37618
9.40369
9.42839
9.4508
9.47071
9.48841
9.50413
9.51749
9.52867
9.53822
9.54654
9.55371
9.55992
9.56534
9.57001
9.57404
9.57756
9.58063
9.58337
9.58593
9.58835
9.59056
9.59257
9.59439
9.59598
9.59734
9.59846
9.5993
9.59984
9.6001
5.3395
5.35339
5.38279
5.43117
5.50462
5.6124
5.76665
5.97685
6.23357
6.49515
6.75252
7.00616
7.24108
7.46053
7.66995
7.86118
8.03758
8.20157
8.34252
8.46232
8.56917
8.6681
8.75661
8.83667
8.9105
8.97595
9.03447
9.08787
9.13511
9.17795
9.21923
9.25988
9.29721
9.33129
9.36283
9.39082
9.41588
9.43878
9.45899
9.47696
9.49307
9.50655
9.51765
9.52709
9.53539
9.54251
9.54866
9.55407
9.55869
9.56266
9.56614
9.56915
9.57185
9.57439
9.57686
9.57911
9.58115
9.58303
9.58466
9.58606
9.58723
9.5881
9.58865
9.58891
5.1838
5.19672
5.22423
5.26997
5.34056
5.44683
5.60455
5.82922
6.11279
6.39268
6.664
6.93387
7.17824
7.40491
7.62422
7.82136
8.00321
8.17527
8.31944
8.43911
8.54609
8.64718
8.73656
8.81729
8.89286
8.95888
9.01765
9.07189
9.11903
9.16139
9.20299
9.24521
9.28339
9.31804
9.35051
9.37888
9.40418
9.42763
9.44807
9.46626
9.48283
9.4964
9.50732
9.5166
9.52488
9.53192
9.538
9.5434
9.54796
9.55184
9.55528
9.55822
9.56084
9.56337
9.5659
9.56818
9.57026
9.5722
9.57386
9.5753
9.57654
9.57744
9.57799
9.57825
5.03341
5.04522
5.0705
5.11294
5.17955
5.28255
5.4418
5.68123
5.99771
6.29568
6.57952
6.86769
7.12019
7.35259
7.58304
7.78505
7.97147
8.15336
8.3002
8.41837
8.5247
8.62852
8.71839
8.79936
8.8771
8.94341
9.00209
9.05743
9.1042
9.14566
9.1874
9.23164
9.27057
9.30562
9.33921
9.36783
9.39321
9.41732
9.4379
9.45621
9.47338
9.487
9.49763
9.50668
9.51498
9.52191
9.52787
9.53329
9.53777
9.54156
9.54496
9.54781
9.55033
9.55284
9.55545
9.55776
9.55985
9.56187
9.56357
9.56503
9.56635
9.56728
9.56783
9.56808
4.88835
4.89893
4.92168
4.96023
5.02173
5.11952
5.27769
5.53157
5.88962
6.20441
6.49828
6.80817
7.0668
7.30275
7.54668
7.75199
7.9416
8.1361
8.28484
8.3998
8.50451
8.61215
8.70196
8.78256
8.86323
8.92941
8.98756
9.04451
9.09059
9.13058
9.17222
9.21923
9.25874
9.2939
9.32893
9.3576
9.38286
9.40784
9.42841
9.44672
9.46473
9.47832
9.48853
9.49727
9.50566
9.51245
9.51825
9.52373
9.5281
9.53176
9.53515
9.53789
9.54029
9.54275
9.54549
9.54781
9.54992
9.55203
9.55375
9.55523
9.55665
9.5576
9.55814
9.55838
4.7486
4.75786
4.77784
4.81198
4.86731
4.95777
5.11151
5.37839
5.79044
6.11917
6.41904
6.75621
7.01794
7.25433
7.51563
7.72188
7.91256
8.12403
8.27342
8.38303
8.48493
8.59822
8.68713
8.76648
8.85138
8.91681
8.97379
9.0332
9.07816
9.116
9.1572
9.20808
9.24783
9.28271
9.31971
9.34815
9.37299
9.39919
9.41955
9.43767
9.45688
9.47036
9.47997
9.48832
9.4969
9.50349
9.50909
9.51469
9.51892
9.52242
9.52583
9.52844
9.53068
9.53308
9.53601
9.53833
9.54041
9.54266
9.54438
9.54587
9.54742
9.54839
9.54891
9.54913
4.61415
4.62201
4.63904
4.66835
4.71653
4.79751
4.94259
5.21908
5.70296
6.0402
6.33996
6.7132
6.97345
7.20582
7.49082
7.69447
7.88295
8.11798
8.26601
8.36768
8.46519
8.58706
8.6738
8.75062
8.84176
8.9055
8.9604
9.02367
9.0669
9.10176
9.14197
9.19841
9.23784
9.27182
9.31166
9.33942
9.36344
9.39145
9.41128
9.42893
9.44989
9.46308
9.47191
9.47973
9.4887
9.49501
9.50032
9.50617
9.51021
9.5135
9.51698
9.51944
9.52147
9.52379
9.52699
9.52928
9.53131
9.53375
9.53545
9.53692
9.53865
9.53962
9.54011
9.54031
4.48495
4.49136
4.50531
4.52947
4.56969
4.63907
4.77043
5.04996
5.63116
5.96771
6.25841
6.6812
6.93317
7.15518
7.47366
7.66949
7.85087
8.11922
8.26268
8.35333
8.44434
8.57923
8.66185
8.73429
8.83478
8.8954
8.94693
9.01618
9.05681
9.08771
9.1261
9.19053
9.22873
9.26093
9.30493
9.33139
9.35398
9.3847
9.40355
9.42029
9.44382
9.45648
9.46427
9.47142
9.48108
9.48699
9.4919
9.49816
9.50194
9.50495
9.50861
9.51086
9.51264
9.51484
9.51845
9.52064
9.52258
9.52529
9.52692
9.52833
9.53032
9.53128
9.53171
9.53189
4.36092
4.36587
4.37667
4.39548
4.42711
4.48298
4.59485
4.86594
5.58059
5.90179
6.17065
6.66323
6.89686
7.09963
7.46632
7.64667
7.81377
8.12965
8.26339
8.33959
8.42117
8.5756
8.65118
8.71661
8.83105
8.88642
8.93273
9.01113
9.04789
9.07373
9.10899
9.18495
9.22046
9.24964
9.29979
9.32399
9.34433
9.37912
9.39631
9.41154
9.43883
9.45052
9.45702
9.4633
9.47407
9.47939
9.48374
9.49069
9.49409
9.49673
9.50071
9.5027
9.50417
9.50617
9.51038
9.51241
9.51416
9.51728
9.51878
9.52008
9.52243
9.52334
9.52371
9.52385
4.24198
4.24548
4.25312
4.26648
4.28914
4.32993
4.41618
4.65997
5.55883
5.84229
6.07161
6.66356
6.86423
7.03542
7.47191
7.62574
7.76823
8.15193
8.26797
8.32608
8.39408
8.57747
8.64166
8.69639
8.83148
8.87844
8.91699
9.00912
9.04009
9.05971
9.08989
9.18233
9.21298
9.23743
9.29664
9.31718
9.33413
9.37498
9.38952
9.40235
9.43512
9.44517
9.4501
9.45523
9.46773
9.47219
9.47576
9.48379
9.48664
9.48878
9.49329
9.49492
9.49603
9.49773
9.50281
9.50455
9.50603
9.50973
9.51101
9.51211
9.51498
9.51579
9.51607
9.51617
4.12802
4.13009
4.13462
4.14255
4.15607
4.18077
4.23558
4.42252
5.57607
5.78874
5.95448
6.68806
6.83485
6.95761
7.49472
7.60643
7.70977
8.18978
8.27592
8.31255
8.36104
8.58662
8.63314
8.67208
8.83734
8.87133
8.89862
9.01098
9.03333
9.04566
9.06776
9.18366
9.20621
9.22361
9.29601
9.31089
9.3229
9.37265
9.38313
9.39234
9.43296
9.44038
9.44347
9.44705
9.46216
9.46536
9.46786
9.47752
9.47955
9.48103
9.48637
9.48752
9.48822
9.48945
9.49578
9.49705
9.49811
9.50266
9.50359
9.50439
9.50799
9.50859
9.50877
9.50883
4.01893
4.01961
4.0211
4.02372
4.0282
4.03643
4.05541
4.14081
5.64575
5.74018
5.81037
6.74466
6.80811
6.85979
7.54059
7.58843
7.63257
8.24825
8.28633
8.29895
8.31944
8.60549
8.62543
8.64169
8.85036
8.86491
8.87624
9.01785
9.02744
9.03168
9.04131
9.1902
9.20003
9.20728
9.29866
9.30503
9.31002
9.37264
9.3771
9.38099
9.43279
9.43604
9.4371
9.43858
9.45752
9.45888
9.4599
9.47195
9.47281
9.4734
9.47999
9.48048
9.48071
9.48125
9.48935
9.4899
9.49034
9.49611
9.49651
9.49685
9.50147
9.50174
9.5018
9.50182
)
;

boundaryField
{
    left
    {
        type            zeroGradient;
    }
    right
    {
        type            zeroGradient;
    }
    interface
    {
        type            fixedValue;
        value           nonuniform List<scalar> 
64
(
3.96559
3.96559
3.96559
3.96559
3.96559
3.96559
3.96559
3.96559
5.71709
5.71709
5.71709
6.79535
6.79535
6.79535
7.57973
7.57973
7.57973
8.29209
8.29209
8.29209
8.29209
8.62175
8.62175
8.62175
8.86186
8.86186
8.86186
9.0247
9.0247
9.0247
9.0247
9.19708
9.19708
9.19708
9.30221
9.30221
9.30221
9.37417
9.37417
9.37417
9.43398
9.43398
9.43398
9.43398
9.45571
9.45571
9.45571
9.46952
9.46952
9.46952
9.47704
9.47704
9.47704
9.47704
9.4864
9.4864
9.4864
9.49305
9.49305
9.49305
9.4984
9.4984
9.4984
9.4984
)
;
    }
    bottom
    {
        type            fixedValue;
        value           uniform 10;
    }
    defaultFaces
    {
        type            empty;
    }
}


// ************************************************************************* //
