/*--------------------------------*- C++ -*----------------------------------*\
| =========                 |                                                 |
| \\      /  F ield         | OpenFOAM: The Open Source CFD Toolbox           |
|  \\    /   O peration     | Version:  5.x                                   |
|   \\  /    A nd           | Web:      www.OpenFOAM.org                      |
|    \\/     M anipulation  |                                                 |
\*---------------------------------------------------------------------------*/
FoamFile
{
    version     2.0;
    format      ascii;
    class       volScalarField;
    location    "8.9";
    object      T;
}
// * * * * * * * * * * * * * * * * * * * * * * * * * * * * * * * * * * * * * //

dimensions      [0 0 0 1 0 0 0];

internalField   nonuniform List<scalar> 
2048
(
9.85531
9.85601
9.85739
9.85944
9.86213
9.86543
9.86929
9.87365
9.87843
9.88356
9.88896
9.89453
9.90018
9.90585
9.91145
9.91693
9.92223
9.92732
9.93216
9.93673
9.94102
9.94503
9.94876
9.95222
9.95542
9.95837
9.96109
9.9636
9.96591
9.96803
9.96998
9.97178
9.97343
9.97494
9.97633
9.97761
9.97877
9.97983
9.9808
9.98168
9.98247
9.98318
9.98382
9.98439
9.9849
9.98535
9.98575
9.98609
9.9864
9.98666
9.98689
9.98709
9.98726
9.98741
9.98753
9.98763
9.98772
9.98779
9.98785
9.98789
9.98793
9.98795
9.98797
9.98798
9.5717
9.57376
9.57785
9.58393
9.59192
9.60172
9.61317
9.62612
9.64033
9.65557
9.67158
9.68811
9.7049
9.72172
9.73834
9.75458
9.77028
9.78534
9.79966
9.81318
9.82587
9.83772
9.84874
9.85896
9.86841
9.87713
9.88516
9.89256
9.89936
9.90563
9.91139
9.91668
9.92155
9.92602
9.93013
9.93389
9.93733
9.94046
9.94331
9.9459
9.94824
9.95034
9.95222
9.95391
9.9554
9.95673
9.9579
9.95893
9.95982
9.9606
9.96128
9.96186
9.96236
9.96279
9.96315
9.96346
9.96371
9.96392
9.96408
9.96422
9.96432
9.96439
9.96444
9.96447
9.29893
9.30231
9.30903
9.31902
9.33216
9.34828
9.36714
9.38845
9.41185
9.43696
9.46333
9.49053
9.51815
9.54578
9.57308
9.59972
9.62547
9.65013
9.67356
9.69566
9.71639
9.73573
9.75371
9.77037
9.78576
9.79995
9.81303
9.82507
9.83614
9.84633
9.8557
9.86432
9.87225
9.87953
9.88621
9.89233
9.89792
9.90303
9.90767
9.91188
9.91568
9.9191
9.92216
9.9249
9.92733
9.92948
9.93138
9.93304
9.9345
9.93576
9.93686
9.9378
9.93861
9.9393
9.93988
9.94037
9.94078
9.94112
9.94139
9.9416
9.94177
9.94189
9.94196
9.942
9.03576
9.04042
9.0497
9.06352
9.0817
9.10402
9.13017
9.15973
9.1922
9.22703
9.2636
9.30131
9.33956
9.37778
9.41549
9.45226
9.48775
9.52169
9.55389
9.58423
9.61265
9.63915
9.66375
9.68652
9.70755
9.72693
9.74477
9.7612
9.7763
9.7902
9.80298
9.81473
9.82554
9.83547
9.84459
9.85295
9.86058
9.86755
9.87389
9.87963
9.88481
9.88947
9.89365
9.89737
9.90068
9.9036
9.90618
9.90844
9.91041
9.91213
9.91361
9.91489
9.91598
9.91691
9.9177
9.91836
9.91891
9.91936
9.91972
9.92001
9.92023
9.92039
9.9205
9.92055
8.78114
8.78706
8.79886
8.81642
8.83958
8.86804
8.90141
8.93917
8.98067
9.02517
9.0719
9.12002
9.16878
9.21745
9.26539
9.31206
9.35703
9.39997
9.44063
9.47889
9.51468
9.54799
9.57888
9.60744
9.6338
9.65807
9.68041
9.70095
9.71984
9.73722
9.7532
9.76791
9.78144
9.79387
9.80528
9.81574
9.8253
9.83403
9.84196
9.84914
9.85562
9.86145
9.86666
9.87131
9.87543
9.87908
9.88228
9.88509
9.88755
9.88967
9.89151
9.89309
9.89445
9.8956
9.89657
9.89738
9.89806
9.89861
9.89906
9.89941
9.89968
9.89987
9.9
9.90006
8.53424
8.54139
8.55564
8.5769
8.60497
8.63953
8.68012
8.72609
8.77664
8.83087
8.88776
8.9463
9.00553
9.06455
9.12258
9.17898
9.2332
9.28488
9.33372
9.37959
9.42241
9.46221
9.49907
9.53311
9.56447
9.59334
9.61989
9.64429
9.66673
9.68737
9.70635
9.72382
9.73989
9.75467
9.76824
9.78068
9.79205
9.80243
9.81185
9.82039
9.82809
9.835
9.84119
9.84669
9.85157
9.85588
9.85967
9.86298
9.86587
9.86837
9.87053
9.87239
9.87397
9.87532
9.87645
9.8774
9.87819
9.87883
9.87935
9.87976
9.88007
9.8803
9.88044
9.88051
8.29435
8.3027
8.31936
8.34426
8.37719
8.41783
8.46565
8.5199
8.5796
8.64365
8.7108
8.77982
8.84953
8.91886
8.98689
9.05286
9.11614
9.17631
9.23307
9.28624
9.33578
9.38175
9.42424
9.46343
9.49951
9.53267
9.56315
9.59116
9.61689
9.64056
9.66235
9.6824
9.70085
9.71783
9.73342
9.74771
9.76079
9.77271
9.78354
9.79334
9.80218
9.81011
9.81719
9.82348
9.82906
9.83397
9.83829
9.84206
9.84534
9.84818
9.85063
9.85273
9.85452
9.85604
9.85732
9.85838
9.85926
9.85998
9.86056
9.86102
9.86137
9.86162
9.86178
9.86186
8.06091
8.07043
8.08944
8.1179
8.15565
8.20236
8.25746
8.32008
8.38909
8.46311
8.54067
8.62028
8.70053
8.78018
8.85814
8.93354
9.00571
9.07415
9.13854
9.19873
9.25468
9.30648
9.35429
9.39831
9.43879
9.47596
9.51009
9.54144
9.57024
9.59673
9.6211
9.64356
9.66423
9.68326
9.70075
9.71678
9.73145
9.74482
9.75696
9.76795
9.77784
9.78671
9.79462
9.80164
9.80785
9.81332
9.81811
9.82229
9.82592
9.82906
9.83177
9.83408
9.83605
9.83772
9.83912
9.84029
9.84125
9.84203
9.84266
9.84315
9.84353
9.8438
9.84397
9.84406
7.83348
7.84411
7.86539
7.89733
7.93983
7.9926
8.05504
8.12618
8.20468
8.28891
8.37708
8.46744
8.55832
8.6483
8.73614
8.82088
8.90176
8.97825
9.05002
9.11691
9.17895
9.23627
9.28907
9.33761
9.38218
9.42307
9.46059
9.49502
9.52665
9.55574
9.58252
9.6072
9.62995
9.65089
9.67015
9.68781
9.70397
9.71869
9.73206
9.74415
9.75502
9.76475
9.77343
9.78111
9.7879
9.79386
9.79908
9.80363
9.80757
9.81098
9.8139
9.8164
9.81853
9.82032
9.82182
9.82307
9.8241
9.82494
9.8256
9.82612
9.82652
9.8268
9.82699
9.82707
7.61169
7.62338
7.64683
7.68213
7.7293
7.7881
7.85796
7.93779
8.02603
8.12073
8.21976
8.32106
8.4227
8.52305
8.62074
8.71471
8.80413
8.88845
8.96733
9.04064
9.10845
9.17095
9.22842
9.28117
9.32954
9.37387
9.4145
9.45177
9.48599
9.51747
9.54647
9.57322
9.59789
9.62062
9.64153
9.66072
9.67827
9.69426
9.70877
9.72188
9.73366
9.74419
9.75356
9.76185
9.76915
9.77556
9.78116
9.78603
9.79025
9.79388
9.797
9.79965
9.80191
9.8038
9.80539
9.8067
9.80778
9.80866
9.80935
9.80989
9.8103
9.81059
9.81078
9.81087
7.39529
7.40796
7.43345
7.47196
7.52367
7.58846
7.66581
7.75453
7.8528
7.95829
8.06849
8.18096
8.2935
8.40426
8.51177
8.61486
8.71266
8.80459
8.89032
8.96974
9.043
9.11035
9.17217
9.22881
9.28069
9.32818
9.37167
9.41153
9.44813
9.4818
9.51284
9.54149
9.56795
9.59235
9.61481
9.63542
9.65427
9.67144
9.68702
9.70108
9.7137
9.72496
9.73496
9.7438
9.75156
9.75836
9.76429
9.76944
9.77389
9.77772
9.781
9.78379
9.78614
9.78812
9.78978
9.79114
9.79226
9.79316
9.79387
9.79442
9.79484
9.79513
9.79532
9.79542
7.18406
7.19763
7.22499
7.26653
7.3226
7.39331
7.47821
7.57605
7.6847
7.80137
7.92307
8.04696
8.17054
8.29177
8.40905
8.52116
8.62718
8.7265
8.8188
8.90403
8.9824
9.05429
9.12012
9.18037
9.23546
9.28584
9.33194
9.37416
9.41291
9.44857
9.48148
9.5119
9.54002
9.56597
9.58988
9.61182
9.63188
9.65016
9.66673
9.68167
9.69507
9.70701
9.71758
9.72689
9.73507
9.74221
9.74843
9.75382
9.75847
9.76246
9.76587
9.76876
9.7712
9.77325
9.77495
9.77634
9.77748
9.7784
9.77912
9.77968
9.78009
9.78039
9.78058
9.78067
6.97787
6.99222
7.02127
7.06558
7.1258
7.2023
7.29482
7.40204
7.52147
7.64976
7.78334
7.91891
8.05368
8.18542
8.31243
8.43344
8.54751
8.654
8.7526
8.84331
8.92646
9.00254
9.07209
9.13563
9.19367
9.24669
9.29514
9.33949
9.38019
9.41765
9.45227
9.48431
9.51398
9.54139
9.56664
9.58983
9.61103
9.63034
9.64784
9.6636
9.67771
9.69025
9.70134
9.71108
9.71961
9.72706
9.73352
9.73911
9.74393
9.74805
9.75156
9.75453
9.75704
9.75912
9.76086
9.76228
9.76343
9.76435
9.76507
9.76562
9.76603
9.76632
9.7665
9.76659
6.77664
6.79165
6.82214
6.86893
6.933
7.01512
7.11529
7.23219
7.36288
7.50327
7.64915
7.7967
7.94279
8.08505
8.22173
8.35151
8.47346
8.58691
8.69152
8.78738
8.87496
8.9549
9.02785
9.0944
9.15513
9.21053
9.26112
9.30738
9.34981
9.3889
9.42506
9.45861
9.48971
9.51848
9.54501
9.56936
9.59163
9.6119
9.63026
9.64678
9.66155
9.67465
9.68619
9.69631
9.70515
9.71284
9.71951
9.72527
9.73022
9.73444
9.73803
9.74107
9.74361
9.74573
9.74747
9.7489
9.75006
9.75097
9.75168
9.75222
9.75262
9.7529
9.75308
9.75316
6.58032
6.59585
6.6275
6.6764
6.74396
6.83145
6.93929
7.0662
7.20871
7.36178
7.52039
7.68021
7.83775
7.99052
8.13679
8.2752
8.40484
8.52504
8.63538
8.73605
8.82769
8.91116
8.9872
9.05649
9.11965
9.17721
9.2297
9.27766
9.32163
9.36215
9.39972
9.43465
9.46711
9.49716
9.52489
9.55034
9.5736
9.59477
9.61393
9.63116
9.64653
9.66013
9.67208
9.68251
9.69161
9.69951
9.70635
9.71224
9.71729
9.7216
9.72524
9.72831
9.73088
9.73301
9.73476
9.73619
9.73733
9.73823
9.73893
9.73945
9.73983
9.7401
9.74026
9.74034
6.38892
6.40479
6.4373
6.48788
6.55848
6.65101
6.76648
6.90378
7.05878
7.22517
7.39698
7.56935
7.73842
7.90166
8.05741
8.20431
8.34146
8.4682
8.58399
8.68909
8.78443
8.87109
8.94992
9.02169
9.08705
9.14654
9.20072
9.25018
9.29549
9.33728
9.37611
9.41234
9.44606
9.47733
9.50618
9.53266
9.55685
9.57886
9.59876
9.61665
9.63259
9.64665
9.65894
9.66964
9.67895
9.68702
9.69399
9.69998
9.70511
9.70947
9.71315
9.71624
9.71881
9.72094
9.72268
9.7241
9.72522
9.7261
9.72677
9.72727
9.72763
9.72788
9.72803
9.7281
6.20246
6.2185
6.2515
6.30328
6.37637
6.47349
6.59651
6.74463
6.91295
7.09337
7.27884
7.46405
7.6447
7.81831
7.98342
8.13862
8.28311
8.41621
8.53716
8.64629
8.74493
8.83446
8.9158
8.98979
9.05714
9.11836
9.17403
9.22481
9.27127
9.31413
9.35409
9.39154
9.42647
9.45889
9.48881
9.51625
9.5413
9.5641
9.5847
9.6032
9.61967
9.63413
9.64671
9.65763
9.66711
9.67531
9.68238
9.68845
9.69363
9.69802
9.70172
9.70481
9.70737
9.70948
9.71121
9.7126
9.7137
9.71455
9.71519
9.71566
9.71599
9.71621
9.71635
9.71642
6.02099
6.03699
6.07012
6.12254
6.19747
6.29862
6.429
6.58845
6.7711
6.96632
7.16592
7.36426
7.55647
7.74029
7.91462
8.07792
8.22956
8.3689
8.49471
8.60744
8.70896
8.80105
8.88463
8.9606
9.02976
9.09251
9.14948
9.20139
9.24881
9.29256
9.33354
9.37215
9.40824
9.44174
9.47268
9.50103
9.52689
9.55042
9.57168
9.59075
9.60771
9.62253
9.63536
9.64644
9.65604
9.66434
9.67148
9.6776
9.68282
9.68722
9.69091
9.69398
9.69652
9.6986
9.7003
9.70167
9.70273
9.70354
9.70415
9.70458
9.70488
9.70508
9.7052
9.70526
5.84455
5.86034
5.89318
5.94564
6.02165
6.12611
6.26356
6.43491
6.63318
6.84405
7.05817
7.26995
7.47362
7.66739
7.85082
8.02199
8.18057
8.3261
8.45649
8.57231
8.67627
8.77065
8.85619
8.93392
9.00473
9.06884
9.12692
9.17982
9.228
9.27244
9.31431
9.35407
9.39127
9.42581
9.45774
9.48692
9.51352
9.53775
9.55961
9.57922
9.59666
9.61181
9.62481
9.63601
9.6457
9.65406
9.66124
9.6674
9.67262
9.67701
9.68069
9.68373
9.68622
9.68827
9.68994
9.69126
9.69229
9.69306
9.69362
9.69401
9.69427
9.69444
9.69455
9.6946
5.67322
5.68859
5.72073
5.77258
5.84882
5.9557
6.09974
6.28364
6.49921
6.72658
6.95552
7.18109
7.39603
7.59939
7.79185
7.97058
8.13589
8.28768
8.42235
8.54068
8.64659
8.74304
8.8303
8.90954
8.98191
9.04719
9.10621
9.15997
9.20871
9.25363
9.29628
9.33719
9.37548
9.411
9.4439
9.47386
9.50113
9.52603
9.54845
9.56856
9.58647
9.60191
9.61503
9.62628
9.63603
9.64442
9.65162
9.65779
9.663
9.66737
9.67102
9.67401
9.67646
9.67845
9.68008
9.68137
9.68235
9.68307
9.68358
9.68393
9.68415
9.68429
9.68437
9.68442
5.50706
5.52181
5.55284
5.6034
5.67891
5.78712
5.93707
6.13419
6.36932
6.61401
6.85787
7.09773
7.32358
7.53602
7.73753
7.92345
8.0952
8.25352
8.39217
8.51232
8.61965
8.71802
8.80675
8.88728
8.96115
9.02744
9.0872
9.14174
9.19085
9.23599
9.27929
9.32146
9.36081
9.39725
9.43111
9.46178
9.48964
9.5152
9.53813
9.55869
9.5771
9.5928
9.60595
9.6172
9.62699
9.63539
9.64257
9.64875
9.65394
9.65826
9.66187
9.66481
9.66718
9.66913
9.67071
9.67195
9.67288
9.67355
9.67401
9.67431
9.67448
9.67459
9.67465
9.67468
5.34613
5.36008
5.38959
5.43817
5.51192
5.62013
5.77499
5.98602
6.24378
6.50648
6.76504
7.01996
7.25616
7.47693
7.68774
7.88035
8.05816
8.22358
8.36588
8.48697
8.59512
8.69543
8.78536
8.86691
8.94235
9.00946
9.06974
9.12506
9.17432
9.21937
9.26321
9.3068
9.34718
9.38445
9.41933
9.45062
9.47897
9.50521
9.52858
9.54956
9.56852
9.58443
9.59754
9.60872
9.61854
9.62691
9.63406
9.64025
9.64539
9.64966
9.65321
9.65608
9.65838
9.66026
9.6618
9.663
9.66387
9.66448
9.66489
9.66513
9.66525
9.66532
9.66536
9.66538
5.19047
5.20345
5.23107
5.27699
5.34786
5.45456
5.61289
5.83843
6.12311
6.40417
6.67674
6.94795
7.19364
7.42168
7.64243
7.841
8.0243
8.19787
8.34341
8.46436
8.57265
8.67514
8.76596
8.84821
8.92542
8.99313
9.05368
9.10988
9.15904
9.20363
9.24787
9.29318
9.33454
9.37251
9.40852
9.44031
9.46904
9.49602
9.51975
9.54108
9.56069
9.57679
9.58975
9.60078
9.61065
9.61897
9.62605
9.63225
9.63734
9.64152
9.64503
9.64781
9.65001
9.65182
9.65332
9.65447
9.65529
9.65583
9.65618
9.65636
9.65643
9.65646
9.65648
9.6565
5.04012
5.05198
5.07736
5.11998
5.18684
5.29025
5.45011
5.69045
6.00813
6.30733
6.59245
6.88204
7.13589
7.36969
7.60166
7.80513
7.99304
8.17653
8.32477
8.4442
8.55183
8.6571
8.74841
8.8309
8.91034
8.97834
9.03882
9.09617
9.14496
9.18862
9.23307
9.28062
9.32284
9.36132
9.39866
9.43082
9.45974
9.48761
9.51159
9.53317
9.55362
9.56985
9.58252
9.59333
9.60328
9.61152
9.61849
9.62472
9.62974
9.63381
9.63728
9.63997
9.64206
9.64378
9.64526
9.64636
9.64711
9.64759
9.64787
9.648
9.648
9.64799
9.64799
9.648
4.89508
4.90571
4.92856
4.96726
5.029
5.12717
5.28594
5.54076
5.90014
6.2162
6.51138
6.82279
7.0828
7.32016
7.56569
7.77248
7.96362
8.15984
8.30999
8.42618
8.53218
8.64131
8.73255
8.81468
8.89712
8.96499
9.02494
9.08397
9.13204
9.17418
9.21859
9.26917
9.31206
9.35073
9.38979
9.42208
9.45096
9.47997
9.50405
9.52573
9.5473
9.56358
9.5758
9.58629
9.59642
9.60453
9.61134
9.61766
9.62257
9.62651
9.62996
9.63254
9.6345
9.63613
9.63759
9.63864
9.63932
9.63972
9.63995
9.64002
9.63994
9.63989
9.63987
9.63987
4.75537
4.76466
4.78472
4.819
4.87454
4.96535
5.11966
5.38752
5.80106
6.13108
6.43229
6.7711
7.03421
7.27202
7.53504
7.74277
7.93499
8.14835
8.29915
8.40993
8.51308
8.62795
8.71827
8.79913
8.8859
8.95299
9.01175
9.07337
9.12026
9.16016
9.20415
9.25897
9.30215
9.34058
9.38196
9.41405
9.44256
9.47315
9.49706
9.51862
9.54178
9.55799
9.56954
9.5796
9.59005
9.59797
9.60456
9.61104
9.61581
9.61957
9.62304
9.6255
9.6273
9.62882
9.6303
9.6313
9.6319
9.63222
9.63239
9.6324
9.63223
9.63214
9.63211
9.63211
4.62094
4.62883
4.64592
4.67535
4.72371
4.805
4.95062
5.2281
5.71369
6.05223
6.35332
6.72836
6.98998
7.22375
7.51062
7.71574
7.90575
8.14288
8.29231
8.39506
8.49378
8.61734
8.70545
8.78374
8.8769
8.94226
8.9989
9.06453
9.10961
9.14639
9.18938
9.25024
9.2931
9.33061
9.37529
9.40669
9.43434
9.46721
9.4906
9.51168
9.53711
9.55305
9.56369
9.57317
9.58419
9.59181
9.59808
9.60487
9.60944
9.61297
9.61651
9.61883
9.62044
9.62185
9.62337
9.62431
9.62483
9.62506
9.62518
9.62513
9.62485
9.62473
9.62469
9.62468
4.49175
4.49819
4.51219
4.53645
4.57682
4.64647
4.7783
5.05882
5.64203
5.97986
6.27184
6.69666
6.94994
7.1733
7.49387
7.6911
7.87398
8.14474
8.28955
8.38117
8.47332
8.61007
8.69398
8.76782
8.87054
8.9327
8.98587
9.05773
9.1001
9.13271
9.17381
9.24336
9.28487
9.32049
9.36999
9.39996
9.42606
9.4623
9.4846
9.50469
9.53341
9.54876
9.55818
9.5669
9.57885
9.58603
9.59184
9.59914
9.60343
9.60666
9.61037
9.6125
9.6139
9.61517
9.61679
9.61766
9.61809
9.61823
9.61829
9.61819
9.61779
9.61763
9.61759
9.61757
4.36773
4.37271
4.38355
4.40243
4.43419
4.49026
4.60253
4.87457
5.59165
5.91405
6.18409
6.67903
6.91387
7.11786
7.48698
7.66861
7.8371
8.15584
8.29084
8.36785
8.45046
8.60701
8.68376
8.75047
8.86746
8.92422
8.97204
9.05342
9.09173
9.11901
9.15682
9.23884
9.27744
9.3098
9.36636
9.3938
9.41739
9.45864
9.47902
9.49738
9.53086
9.5451
9.55297
9.56067
9.5741
9.58061
9.58576
9.59389
9.59776
9.60058
9.60462
9.60651
9.60765
9.60875
9.61056
9.61134
9.61168
9.6117
9.61172
9.61159
9.61101
9.61084
9.61079
9.61078
4.2488
4.25232
4.25999
4.2734
4.29615
4.3371
4.42365
4.66828
5.57015
5.85465
6.08498
6.67976
6.88146
7.05369
7.49306
7.64799
7.79167
8.17887
8.296
8.35473
8.4236
8.60949
8.67467
8.73047
8.86859
8.91672
8.95654
9.0522
9.08447
9.1052
9.13759
9.23746
9.27076
9.29793
9.36486
9.38818
9.40791
9.45654
9.47383
9.48935
9.52973
9.54202
9.548
9.55431
9.57003
9.57552
9.57975
9.58916
9.5924
9.59469
9.59926
9.60083
9.60168
9.60257
9.60466
9.60532
9.60556
9.60546
9.60545
9.6053
9.60451
9.60433
9.6043
9.60428
4.13485
4.13693
4.14148
4.14944
4.16302
4.18781
4.24281
4.43039
5.58777
5.8012
5.96767
6.70475
6.85228
6.97581
7.51647
7.62896
7.73318
8.21759
8.30454
8.34156
8.39067
8.61932
8.66655
8.70626
8.87523
8.91006
8.93826
9.05496
9.07824
9.09127
9.11502
9.24025
9.26474
9.28413
9.36613
9.38302
9.39705
9.45648
9.46897
9.48015
9.53038
9.53947
9.54323
9.54766
9.56677
9.57073
9.57368
9.58501
9.58734
9.58892
9.59432
9.59543
9.59596
9.59658
9.59912
9.59959
9.59973
9.59948
9.59946
9.59933
9.59825
9.5981
9.59808
9.59807
4.02577
4.02646
4.02796
4.03058
4.03508
4.04334
4.06239
4.14807
5.65798
5.75274
5.82324
6.76198
6.82574
6.87775
7.56305
7.61123
7.65575
8.27709
8.31553
8.32828
8.34904
8.63898
8.65921
8.6758
8.88916
8.90406
8.91578
9.06288
9.07286
9.07734
9.08771
9.24862
9.25928
9.26739
9.37101
9.37825
9.38411
9.45907
9.4644
9.46913
9.53332
9.53733
9.53862
9.54046
9.56451
9.5662
9.5674
9.58155
9.58255
9.58318
9.58984
9.59031
9.59049
9.59074
9.59392
9.59413
9.59417
9.59374
9.59373
9.59366
9.59221
9.59214
9.59213
9.59212
)
;

boundaryField
{
    left
    {
        type            zeroGradient;
    }
    right
    {
        type            zeroGradient;
    }
    interface
    {
        type            fixedValue;
        value           nonuniform List<scalar> 
64
(
3.97244
3.97244
3.97244
3.97244
3.97244
3.97244
3.97244
3.97244
5.72969
5.72969
5.72969
6.81308
6.81308
6.81308
7.60266
7.60266
7.60266
8.32158
8.32158
8.32158
8.32158
8.65572
8.65572
8.65572
8.90122
8.90122
8.90122
9.07037
9.07037
9.07037
9.07037
9.25668
9.25668
9.25668
9.37595
9.37595
9.37595
9.46218
9.46218
9.46218
9.53636
9.53636
9.53636
9.53636
9.56399
9.56399
9.56399
9.58021
9.58021
9.58021
9.58781
9.58781
9.58781
9.58781
9.59147
9.59147
9.59147
9.59093
9.59093
9.59093
9.58922
9.58922
9.58922
9.58922
)
;
    }
    bottom
    {
        type            fixedValue;
        value           uniform 10;
    }
    defaultFaces
    {
        type            empty;
    }
}


// ************************************************************************* //
