/*--------------------------------*- C++ -*----------------------------------*\
| =========                 |                                                 |
| \\      /  F ield         | OpenFOAM: The Open Source CFD Toolbox           |
|  \\    /   O peration     | Version:  5.x                                   |
|   \\  /    A nd           | Web:      www.OpenFOAM.org                      |
|    \\/     M anipulation  |                                                 |
\*---------------------------------------------------------------------------*/
FoamFile
{
    version     2.0;
    format      ascii;
    class       volScalarField;
    location    "2.4";
    object      gradTy;
}
// * * * * * * * * * * * * * * * * * * * * * * * * * * * * * * * * * * * * * //

dimensions      [0 -1 0 1 0 0 0];

internalField   nonuniform List<scalar> 
2048
(
-21.6494
-21.5665
-21.4016
-21.1569
-20.8359
-20.4433
-19.9855
-19.4703
-18.9071
-18.306
-17.678
-17.0339
-16.3844
-15.7393
-15.1071
-14.4952
-13.9094
-13.3541
-12.8324
-12.346
-11.8956
-11.481
-11.1013
-10.7551
-10.4405
-10.1555
-9.89781
-9.66528
-9.4557
-9.26696
-9.09709
-8.94427
-8.80683
-8.68327
-8.57226
-8.47257
-8.38313
-8.30299
-8.23125
-8.16714
-8.10992
-8.05893
-8.01356
-7.97324
-7.93745
-7.90571
-7.87757
-7.85264
-7.83056
-7.81099
-7.79364
-7.77827
-7.76465
-7.75259
-7.74195
-7.73259
-7.72442
-7.71736
-7.71136
-7.70639
-7.70242
-7.69945
-7.69747
-7.69648
-21.7163
-21.6325
-21.4659
-21.2185
-20.8935
-20.4958
-20.0316
-19.509
-18.9374
-18.3275
-17.6905
-17.0379
-16.3805
-15.7284
-15.0903
-14.4736
-13.8842
-13.3265
-12.8032
-12.3162
-11.866
-11.4521
-11.0736
-10.7289
-10.4159
-10.1327
-9.87677
-9.646
-9.4381
-9.25094
-9.08254
-8.93105
-8.79482
-8.67234
-8.56228
-8.46346
-8.3748
-8.29535
-8.22425
-8.16072
-8.10403
-8.05353
-8.00861
-7.96871
-7.93331
-7.90192
-7.87411
-7.84947
-7.82764
-7.8083
-7.79116
-7.77596
-7.76249
-7.75056
-7.74002
-7.73074
-7.72262
-7.7156
-7.70963
-7.70468
-7.70072
-7.69776
-7.69578
-7.69479
-21.8435
-21.7582
-21.5884
-21.3358
-21.0035
-20.596
-20.1196
-19.5827
-18.9951
-18.3682
-17.7141
-17.045
-16.3724
-15.7069
-15.0576
-14.4319
-13.8358
-13.2734
-12.7475
-12.2595
-11.8096
-11.3972
-11.021
-10.6791
-10.3693
-10.0894
-9.83697
-9.60955
-9.40487
-9.22073
-9.0551
-8.90613
-8.77217
-8.65173
-8.54349
-8.44629
-8.35909
-8.28096
-8.21105
-8.14861
-8.09292
-8.04335
-7.99928
-7.96017
-7.9255
-7.89477
-7.86757
-7.84348
-7.82215
-7.80325
-7.78649
-7.77162
-7.75843
-7.74674
-7.73638
-7.72725
-7.71924
-7.7123
-7.70638
-7.70145
-7.69751
-7.69455
-7.69257
-7.69158
-22.0239
-21.9366
-21.7625
-21.503
-21.1605
-20.7393
-20.2455
-19.6879
-19.0772
-18.4257
-17.7468
-17.0539
-16.3595
-15.6749
-15.0096
-14.3712
-13.7657
-13.197
-12.6675
-12.1783
-11.7292
-11.3192
-10.9464
-10.6086
-10.3035
-10.0285
-9.78097
-9.55834
-9.35823
-9.17836
-9.01666
-8.87125
-8.74048
-8.62288
-8.51718
-8.42225
-8.33708
-8.26078
-8.19254
-8.13162
-8.07734
-8.02906
-7.98619
-7.94819
-7.91454
-7.88476
-7.85841
-7.83509
-7.81445
-7.79617
-7.77995
-7.76555
-7.75276
-7.74138
-7.73129
-7.72236
-7.7145
-7.70766
-7.70181
-7.69691
-7.69299
-7.69003
-7.68805
-7.68705
-22.2515
-22.162
-21.9829
-21.7151
-21.3602
-20.9219
-20.4061
-19.8219
-19.1812
-18.4978
-17.7868
-17.0631
-16.3407
-15.6318
-14.9463
-14.2921
-13.675
-13.0987
-12.5651
-12.0749
-11.6272
-11.2204
-10.8523
-10.5201
-10.2211
-9.95233
-9.71106
-9.49455
-9.30023
-9.12576
-8.96898
-8.82802
-8.70121
-8.58714
-8.48457
-8.39243
-8.30977
-8.23573
-8.16955
-8.11051
-8.05796
-8.01129
-7.96992
-7.9333
-7.90093
-7.87232
-7.84704
-7.82469
-7.80491
-7.78739
-7.77185
-7.75803
-7.74572
-7.73476
-7.72499
-7.7163
-7.70862
-7.7019
-7.69612
-7.69126
-7.68735
-7.68438
-7.6824
-7.68139
-22.5209
-22.4291
-22.2449
-21.9682
-21.5994
-21.1411
-20.599
-19.9826
-19.305
-18.5824
-17.832
-17.0709
-16.3147
-15.5767
-14.8673
-14.1947
-13.5643
-12.9795
-12.4418
-11.951
-11.5056
-11.1032
-10.741
-10.4158
-10.1242
-9.86307
-9.62936
-9.42016
-9.23274
-9.06465
-8.91367
-8.7779
-8.65571
-8.54572
-8.44676
-8.35784
-8.27806
-8.20662
-8.14281
-8.08595
-8.03541
-7.99061
-7.95098
-7.91598
-7.8851
-7.85787
-7.83383
-7.81261
-7.79384
-7.77722
-7.76246
-7.74931
-7.73758
-7.72708
-7.71768
-7.70928
-7.7018
-7.69521
-7.6895
-7.68467
-7.68075
-7.67778
-7.67578
-7.67476
-22.827
-22.7332
-22.5443
-22.2587
-21.8752
-21.3948
-20.8225
-20.1683
-19.4472
-18.6779
-17.8808
-17.0757
-16.2801
-15.5086
-14.7722
-14.0789
-13.4341
-12.8404
-12.2987
-11.8081
-11.3661
-10.9695
-10.6147
-10.2977
-10.0149
-9.76274
-9.53779
-9.33699
-9.15747
-8.99664
-8.85222
-8.72227
-8.6052
-8.49972
-8.40475
-8.31937
-8.24276
-8.1742
-8.113
-8.05855
-8.01025
-7.96753
-7.92985
-7.89666
-7.86746
-7.84177
-7.81913
-7.79917
-7.78154
-7.76591
-7.75203
-7.73964
-7.72854
-7.71857
-7.70958
-7.70148
-7.69421
-7.68775
-7.6821
-7.67729
-7.67336
-7.67035
-7.66832
-7.66729
-23.1649
-23.0698
-22.8773
-22.5838
-22.1856
-21.6816
-21.0757
-20.3781
-19.6062
-18.7824
-17.9311
-17.0754
-16.2352
-15.4262
-14.6601
-13.9446
-13.2845
-12.6819
-12.1369
-11.6476
-11.2104
-10.8211
-10.4751
-10.1679
-9.89524
-9.65316
-9.43808
-9.2467
-9.07598
-8.92319
-8.78596
-8.66234
-8.5508
-8.45016
-8.35943
-8.27783
-8.20461
-8.13911
-8.08072
-8.02885
-7.98295
-7.94249
-7.90693
-7.87573
-7.84836
-7.82435
-7.80324
-7.78466
-7.76825
-7.75372
-7.74079
-7.72922
-7.71881
-7.7094
-7.70085
-7.69307
-7.68601
-7.67968
-7.67408
-7.66926
-7.66529
-7.66224
-7.66016
-7.65911
-23.5301
-23.4347
-23.2403
-22.9407
-22.529
-22.0009
-21.3581
-20.6114
-19.781
-18.8945
-17.981
-17.0681
-16.1782
-15.3284
-14.5304
-13.7914
-13.1157
-12.5047
-11.9573
-11.4706
-11.0399
-10.6597
-10.3242
-10.0281
-9.76684
-9.53602
-9.33184
-9.1508
-8.98969
-8.84562
-8.71612
-8.59923
-8.49351
-8.3979
-8.3116
-8.23392
-8.16423
-8.10194
-8.04648
-7.99732
-7.95396
-7.9159
-7.8826
-7.85352
-7.82812
-7.80591
-7.78644
-7.76932
-7.75422
-7.74084
-7.72893
-7.71824
-7.70857
-7.69975
-7.69165
-7.6842
-7.67735
-7.67112
-7.66555
-7.6607
-7.65667
-7.65354
-7.65141
-7.65032
-23.9178
-23.8236
-23.63
-23.3273
-22.9044
-22.3524
-21.67
-20.868
-19.9708
-19.0123
-18.0285
-17.0517
-16.1075
-15.2138
-14.3822
-13.6192
-12.928
-12.3091
-11.7607
-11.2785
-10.8562
-10.4868
-10.1635
-9.88006
-9.63136
-9.41284
-9.22049
-9.05063
-8.89987
-8.76515
-8.64383
-8.53395
-8.4342
-8.34374
-8.26194
-8.18827
-8.1222
-8.06319
-8.01075
-7.96439
-7.92365
-7.88809
-7.85717
-7.83033
-7.80702
-7.78671
-7.76896
-7.75337
-7.73964
-7.72748
-7.71663
-7.70686
-7.69796
-7.68976
-7.68213
-7.675
-7.66836
-7.66222
-7.65664
-7.65173
-7.64759
-7.64437
-7.64216
-7.64103
-24.3234
-24.2323
-24.0428
-23.7413
-23.3109
-22.7365
-22.0123
-21.1485
-20.1749
-19.1342
-18.0711
-17.0238
-16.021
-15.0811
-14.2149
-13.4278
-12.7216
-12.0959
-11.548
-11.0724
-10.6607
-10.3042
-9.9947
-9.72528
-9.49029
-9.28501
-9.10532
-8.9474
-8.80769
-8.68285
-8.57008
-8.46738
-8.37367
-8.28836
-8.21106
-8.14141
-8.07898
-8.0233
-7.97392
-7.9304
-7.89235
-7.85936
-7.83093
-7.80645
-7.78531
-7.76699
-7.75101
-7.73702
-7.7247
-7.7138
-7.70405
-7.69523
-7.68713
-7.67957
-7.67241
-7.66561
-7.65914
-7.65307
-7.64746
-7.64244
-7.63816
-7.6348
-7.63249
-7.63132
-24.742
-24.6564
-24.4755
-24.1807
-23.7482
-23.1544
-22.3865
-21.4538
-20.3926
-19.2583
-18.1065
-16.9821
-15.9169
-14.9293
-14.0281
-13.2172
-12.4967
-11.8654
-11.32
-10.8533
-10.4549
-10.1134
-9.81945
-9.56532
-9.34502
-9.15381
-8.98751
-8.8422
-8.71415
-8.59973
-8.49579
-8.40034
-8.31259
-8.23233
-8.15945
-8.09379
-8.03501
-7.98267
-7.93635
-7.89568
-7.86033
-7.82998
-7.80412
-7.78209
-7.76323
-7.74695
-7.7328
-7.72043
-7.70956
-7.69993
-7.69132
-7.68349
-7.67622
-7.6693
-7.66261
-7.65612
-7.64982
-7.64378
-7.63809
-7.63292
-7.62845
-7.62492
-7.62249
-7.62127
-25.1688
-25.0914
-24.9243
-24.6435
-24.2161
-23.6076
-22.7952
-21.7851
-20.6232
-19.3823
-18.1319
-16.9238
-15.7932
-14.7572
-13.8215
-12.9876
-12.254
-11.6183
-11.0773
-10.6226
-10.2402
-9.91601
-9.63926
-9.40162
-9.19682
-9.02034
-8.86806
-8.73596
-8.62019
-8.51669
-8.42181
-8.33352
-8.25155
-8.17615
-8.10755
-8.0458
-7.99065
-7.94162
-7.89835
-7.8605
-7.82784
-7.80015
-7.77696
-7.75749
-7.74097
-7.72679
-7.7145
-7.70377
-7.69434
-7.68602
-7.67856
-7.67174
-7.66532
-7.65906
-7.65284
-7.64663
-7.64047
-7.63443
-7.62863
-7.62326
-7.61854
-7.6148
-7.61222
-7.61095
-25.5989
-25.5328
-25.3857
-25.1273
-24.7145
-24.0984
-23.2417
-22.1448
-20.8659
-19.5036
-18.1441
-16.8462
-15.6482
-14.5642
-13.595
-12.7396
-11.9941
-11.355
-10.8207
-10.3812
-10.0181
-9.71358
-9.45564
-9.23553
-9.04684
-8.8856
-8.74786
-8.62948
-8.52659
-8.43456
-8.34892
-8.26756
-8.19103
-8.12022
-8.05568
-7.99777
-7.9462
-7.90044
-7.86017
-7.8251
-7.79506
-7.77006
-7.74963
-7.73283
-7.71872
-7.70667
-7.69625
-7.68715
-7.67918
-7.67216
-7.66587
-7.66009
-7.65454
-7.64895
-7.64318
-7.63724
-7.6312
-7.62513
-7.61917
-7.61352
-7.60849
-7.60449
-7.60174
-7.60041
-26.0273
-25.976
-25.8557
-25.63
-25.2437
-24.6298
-23.7305
-22.5356
-21.1196
-19.6189
-18.1399
-16.7462
-15.4801
-14.35
-13.3488
-12.474
-11.7179
-11.076
-10.5506
-10.1305
-9.79043
-9.50773
-9.27005
-9.06834
-8.89608
-8.75046
-8.62768
-8.52341
-8.43404
-8.35413
-8.27786
-8.20299
-8.13142
-8.06487
-8.00413
-7.94994
-7.90194
-7.85938
-7.82207
-7.78969
-7.76215
-7.73984
-7.7223
-7.70829
-7.69664
-7.68675
-7.6782
-7.6707
-7.66417
-7.65845
-7.65333
-7.64862
-7.64399
-7.63907
-7.63371
-7.62802
-7.62207
-7.61593
-7.60977
-7.6038
-7.59837
-7.59405
-7.5911
-7.58973
-26.4491
-26.4161
-26.3302
-26.1485
-25.8034
-25.2053
-24.2674
-22.9614
-21.3821
-19.724
-18.1157
-16.6205
-15.2871
-14.1145
-13.0834
-12.1917
-11.4267
-10.7815
-10.2674
-9.87162
-9.55896
-9.30005
-9.08387
-8.90131
-8.74543
-8.61562
-8.50818
-8.41826
-8.34309
-8.27613
-8.20936
-8.14024
-8.07303
-8.01036
-7.95306
-7.90252
-7.85811
-7.81866
-7.78425
-7.75445
-7.72923
-7.70959
-7.69511
-7.68404
-7.67488
-7.66715
-7.66046
-7.65452
-7.6494
-7.64498
-7.64102
-7.6374
-7.63373
-7.62949
-7.62451
-7.61903
-7.61315
-7.60692
-7.60051
-7.59414
-7.5882
-7.58351
-7.58036
-7.57893
-26.8597
-26.8485
-26.8046
-26.6798
-26.3932
-25.8288
-24.8602
-23.4274
-21.6503
-19.8139
-18.0682
-16.4653
-15.0677
-13.8588
-12.7995
-11.8943
-11.1222
-10.4715
-9.97087
-9.60596
-9.3258
-9.09204
-8.89839
-8.73562
-8.59556
-8.48166
-8.38995
-8.31434
-8.25416
-8.20132
-8.14416
-8.07964
-8.01603
-7.95688
-7.90259
-7.85566
-7.81493
-7.77844
-7.74689
-7.71958
-7.69635
-7.67935
-7.66818
-7.66023
-7.65357
-7.64799
-7.64313
-7.63867
-7.63493
-7.63179
-7.62897
-7.62649
-7.62384
-7.62029
-7.61562
-7.61032
-7.6045
-7.59814
-7.59146
-7.58461
-7.57804
-7.5729
-7.56953
-7.56807
-27.2547
-27.2686
-27.2743
-27.22
-27.0121
-26.5047
-25.5184
-23.9407
-21.9185
-19.8821
-17.9945
-16.2765
-14.8207
-13.5845
-12.4974
-11.5834
-10.8068
-10.1453
-9.66042
-9.335
-9.09348
-8.88504
-8.71476
-8.57253
-8.44692
-8.34902
-8.27354
-8.21176
-8.16751
-8.13045
-8.08309
-8.02134
-7.96048
-7.90461
-7.85271
-7.80945
-7.77263
-7.73884
-7.71016
-7.68524
-7.66351
-7.64912
-7.64161
-7.63705
-7.6328
-7.62936
-7.62631
-7.6232
-7.6208
-7.61895
-7.61722
-7.61591
-7.6144
-7.61154
-7.60708
-7.60192
-7.59616
-7.58963
-7.58267
-7.57527
-7.56787
-7.56221
-7.55865
-7.55719
-27.63
-27.6719
-27.7343
-27.7643
-27.6581
-27.2374
-26.2542
-24.5116
-22.1777
-19.9206
-17.8934
-16.0486
-14.5449
-13.295
-12.1772
-11.2612
-10.4843
-9.80142
-9.33468
-9.06058
-8.86515
-8.68004
-8.53394
-8.4134
-8.29965
-8.218
-8.15959
-8.11037
-8.08322
-8.06438
-8.02712
-7.9653
-7.90631
-7.85376
-7.8033
-7.76396
-7.73148
-7.6999
-7.67419
-7.65168
-7.63063
-7.61882
-7.61552
-7.61465
-7.61264
-7.6113
-7.61008
-7.60811
-7.60704
-7.60648
-7.60574
-7.60568
-7.60544
-7.60331
-7.59887
-7.59383
-7.58817
-7.58141
-7.57419
-7.56618
-7.5577
-7.55142
-7.54772
-7.5463
-27.982
-28.0543
-28.1798
-28.3074
-28.3278
-28.0308
-27.0829
-25.1548
-22.4134
-19.9197
-17.7666
-15.7745
-14.2391
-12.9963
-11.8377
-10.93
-10.1601
-9.43687
-8.99133
-8.78499
-8.64486
-8.47744
-8.35666
-8.25993
-8.15339
-8.08872
-8.04894
-8.00965
-8.00109
-8.00407
-7.97748
-7.9111
-7.8533
-7.80464
-7.75407
-7.71916
-7.69182
-7.66153
-7.63911
-7.61917
-7.59751
-7.58828
-7.59
-7.59326
-7.59308
-7.59387
-7.59453
-7.59338
-7.59363
-7.59443
-7.5945
-7.59577
-7.59703
-7.59565
-7.59097
-7.58604
-7.58055
-7.57348
-7.56606
-7.55739
-7.54747
-7.54049
-7.53675
-7.53545
-28.3077
-28.4121
-28.6055
-28.8432
-29.0163
-28.8878
-28.0228
-25.892
-22.6019
-19.8677
-17.6206
-15.4437
-13.9025
-12.6975
-11.4752
-10.5923
-9.84261
-9.04639
-8.62686
-8.51123
-8.43807
-8.27654
-8.18336
-8.11444
-8.0071
-7.96119
-7.94287
-7.90858
-7.92068
-7.95069
-7.93582
-7.85784
-7.80109
-7.75777
-7.70449
-7.67503
-7.65416
-7.62351
-7.60502
-7.58818
-7.5638
-7.55727
-7.56519
-7.57316
-7.57407
-7.57704
-7.57976
-7.57891
-7.58056
-7.58286
-7.58341
-7.58612
-7.58922
-7.58867
-7.58328
-7.57851
-7.57333
-7.56577
-7.5583
-7.549
-7.5371
-7.52934
-7.52574
-7.52466
-28.6048
-28.742
-29.0066
-29.3646
-29.7165
-29.8089
-29.0958
-26.7561
-22.7064
-19.7511
-17.4709
-15.04
-13.5342
-12.4136
-11.0819
-10.2508
-9.54499
-8.62109
-8.23637
-8.24333
-8.25217
-8.07492
-8.01414
-7.98036
-7.85863
-7.83528
-7.84342
-7.8054
-7.84118
-7.90563
-7.90447
-7.80387
-7.74916
-7.71413
-7.65365
-7.63147
-7.61929
-7.5853
-7.57202
-7.55938
-7.52894
-7.52544
-7.54128
-7.55472
-7.55544
-7.56081
-7.56594
-7.56456
-7.56779
-7.57184
-7.57232
-7.57667
-7.58206
-7.58246
-7.57566
-7.57118
-7.56658
-7.55822
-7.55095
-7.54114
-7.52644
-7.51788
-7.51468
-7.51398
-28.8717
-29.0414
-29.3785
-29.8641
-30.419
-30.7916
-30.3266
-27.797
-22.6698
-19.5546
-17.346
-14.5378
-13.1333
-12.1681
-10.6429
-9.90825
-9.28725
-8.14659
-7.81353
-7.98662
-8.09748
-7.86741
-7.84875
-7.86295
-7.70417
-7.71073
-7.75388
-7.69733
-7.76139
-7.8706
-7.88678
-7.74636
-7.69684
-7.67538
-7.60004
-7.58837
-7.58849
-7.54599
-7.54019
-7.53386
-7.49204
-7.49239
-7.51851
-7.53848
-7.53684
-7.54512
-7.55334
-7.55006
-7.55528
-7.56155
-7.56103
-7.5673
-7.57565
-7.57724
-7.56789
-7.56399
-7.56039
-7.55066
-7.54406
-7.53402
-7.51529
-7.506
-7.50359
-7.50349
-29.1073
-29.3085
-29.7171
-30.3339
-31.1122
-31.8281
-31.7413
-29.0901
-22.4048
-19.2625
-17.2943
-13.8966
-12.6992
-11.997
-10.1325
-9.56738
-9.09982
-7.60011
-7.35079
-7.74799
-7.98838
-7.64466
-7.68666
-7.77025
-7.53739
-7.58725
-7.67946
-7.58001
-7.67975
-7.84762
-7.88764
-7.68081
-7.64342
-7.64429
-7.54132
-7.54561
-7.56371
-7.50402
-7.50963
-7.51332
-7.45172
-7.45762
-7.49724
-7.52524
-7.51774
-7.52993
-7.54243
-7.53504
-7.543
-7.5523
-7.54927
-7.55791
-7.57011
-7.57331
-7.55964
-7.55689
-7.55498
-7.54288
-7.53767
-7.52799
-7.50337
-7.49361
-7.49253
-7.49327
-29.3114
-29.542
-30.019
-30.7664
-31.7821
-32.9045
-33.3642
-30.7494
-21.7809
-18.8594
-17.3935
-13.0528
-12.2317
-11.9544
-9.50826
-9.23096
-9.0282
-6.94636
-6.8401
-7.53599
-7.94504
-7.39123
-7.52714
-7.71453
-7.34819
-7.46455
-7.62815
-7.44681
-7.59438
-7.83893
-7.91418
-7.60028
-7.58815
-7.62524
-7.47378
-7.50311
-7.54798
-7.4569
-7.48043
-7.50034
-7.40593
-7.42066
-7.47795
-7.51613
-7.49725
-7.5152
-7.53389
-7.5189
-7.53095
-7.54458
-7.53664
-7.5484
-7.56558
-7.57115
-7.55045
-7.54984
-7.55071
-7.53456
-7.53186
-7.5236
-7.49026
-7.48065
-7.4816
-7.48346
-29.4843
-29.7416
-30.2817
-31.1542
-32.4127
-33.9985
-35.2127
-32.9449
-20.6058
-18.3337
-17.7628
-11.9088
-11.7321
-12.1209
-8.70375
-8.90189
-9.13924
-6.13185
-6.27436
-7.36062
-7.99569
-7.08286
-7.36953
-7.71411
-7.12099
-7.34255
-7.61196
-7.28785
-7.50332
-7.8468
-7.97673
-7.49432
-7.53045
-7.62493
-7.39179
-7.46085
-7.54583
-7.40077
-7.45274
-7.49874
-7.35158
-7.3811
-7.46122
-7.51276
-7.47403
-7.50093
-7.52884
-7.50076
-7.51915
-7.53913
-7.52255
-7.53865
-7.56226
-7.57149
-7.53961
-7.54283
-7.54813
-7.52519
-7.52672
-7.52167
-7.47533
-7.4671
-7.47095
-7.47419
-29.6269
-29.9075
-30.5036
-31.4912
-32.9873
-35.0782
-37.2879
-35.9266
-18.6009
-17.6809
-18.5775
-10.3177
-11.2043
-12.6128
-7.61801
-8.58363
-9.52923
-5.07701
-5.65002
-7.23245
-8.17968
-6.68303
-7.21364
-7.79571
-6.8324
-7.22159
-7.64835
-7.08856
-7.40493
-7.87311
-8.09017
-7.34758
-7.47008
-7.65325
-7.28688
-7.41898
-7.56385
-7.32981
-7.42673
-7.51407
-7.28409
-7.33876
-7.44769
-7.5174
-7.44603
-7.48715
-7.52887
-7.4793
-7.50768
-7.53708
-7.50618
-7.52863
-7.56029
-7.57537
-7.52614
-7.5359
-7.54809
-7.51405
-7.52235
-7.52336
-7.45768
-7.45304
-7.46077
-7.46562
-29.7406
-30.0406
-30.6842
-31.7725
-33.4891
-36.1022
-39.5617
-40.057
-15.3699
-16.9096
-20.089
-8.06367
-10.6571
-13.5958
-6.10259
-8.28076
-10.3343
-3.66577
-4.97129
-7.16096
-8.55145
-6.13847
-7.06037
-7.99749
-6.44817
-7.10286
-7.76214
-6.82783
-7.2986
-7.91855
-8.27556
-7.13804
-7.40744
-7.72434
-7.14668
-7.37791
-7.61145
-7.23549
-7.40265
-7.55416
-7.19676
-7.2939
-7.43792
-7.53317
-7.41028
-7.47395
-7.53622
-7.45256
-7.49666
-7.53997
-7.48627
-7.51833
-7.55978
-7.58426
-7.50856
-7.52911
-7.55178
-7.50003
-7.51878
-7.53034
-7.43593
-7.43864
-7.45127
-7.45786
-29.8271
-30.1425
-30.8241
-31.9952
-33.9033
-37.0202
-41.9572
-45.8518
-10.359
-16.0501
-22.6475
-4.8374
-10.1079
-15.2998
-3.94522
-8.00014
-11.743
-1.73207
-4.25638
-7.15153
-9.18576
-5.37359
-6.91261
-8.37259
-5.91938
-6.98892
-7.98771
-6.47561
-7.18587
-7.98151
-8.56241
-6.83466
-7.34401
-7.85786
-6.95341
-7.33847
-7.70164
-7.10556
-7.38079
-7.62981
-7.08
-7.24753
-7.43222
-7.56428
-7.36248
-7.46146
-7.55399
-7.41768
-7.48621
-7.54987
-7.46099
-7.50783
-7.56059
-7.60014
-7.48475
-7.52249
-7.56079
-7.48151
-7.51593
-7.5448
-7.40806
-7.42422
-7.44265
-7.45094
-29.8886
-30.2152
-30.9249
-32.1584
-34.2179
-37.7765
-44.3227
-54.0328
-2.80745
-15.1652
-26.7292
-0.205727
-9.58717
-18.0378
-0.849822
-7.75251
-14.0117
0.95709
-3.54639
-7.20076
-10.1842
-4.28366
-6.77639
-8.99346
-5.17767
-6.88453
-8.37161
-5.98984
-7.07206
-8.05633
-8.99142
-6.39461
-7.28289
-8.08051
-6.68213
-7.30213
-7.85211
-6.92289
-7.36159
-7.75563
-6.92021
-7.2019
-7.43026
-7.61634
-7.29655
-7.44987
-7.58625
-7.37054
-7.47647
-7.5695
-7.42766
-7.4973
-7.56221
-7.62565
-7.45165
-7.51606
-7.57723
-7.45611
-7.51352
-7.56967
-7.37106
-7.41025
-7.43495
-7.44474
-29.9273
-30.261
-30.9888
-32.2635
-34.4264
-38.3166
-46.3967
-65.5911
8.31173
-14.3649
-32.9667
6.42419
-9.14509
-22.2277
3.58684
-7.55475
-17.4823
4.72239
-2.9174
-7.28957
-11.6835
-2.72671
-6.66252
-9.95673
-4.12962
-6.79771
-8.97558
-5.31266
-6.9686
-8.13091
-9.61787
-5.75985
-7.22953
-8.42769
-6.29866
-7.27125
-8.08631
-6.66399
-7.34557
-7.95093
-6.69855
-7.16104
-7.43064
-7.69676
-7.20413
-7.43943
-7.63829
-7.30535
-7.46754
-7.60228
-7.38243
-7.48711
-7.56347
-7.6642
-7.40499
-7.5097
-7.60372
-7.42048
-7.5109
-7.60866
-7.32069
-7.39741
-7.42804
-7.43894
-29.9453
-30.2824
-31.019
-32.3137
-34.5283
-38.5975
-47.764
-81.8637
24.3605
-13.8248
-42.1836
15.8457
-8.86056
-28.4156
9.90152
-7.43345
-22.6032
9.99635
-2.4968
-7.37454
-13.866
-0.514973
-6.58933
-11.3894
-2.65109
-6.74196
-9.88069
-4.36685
-6.89688
-8.18448
-10.5166
-4.85406
-7.19353
-8.94624
-5.75801
-7.25047
-8.4357
-6.29842
-7.33449
-8.24185
-6.3904
-7.13261
-7.43124
-7.81619
-7.0749
-7.43144
-7.71784
-7.21522
-7.4605
-7.65348
-7.32094
-7.47889
-7.5633
-7.72121
-7.33992
-7.50418
-7.64456
-7.37103
-7.50795
-7.66756
-7.252
-7.3877
-7.42244
-7.43402
)
;

boundaryField
{
    left
    {
        type            calculated;
        value           nonuniform List<scalar> 
32
(
-21.6494
-21.7163
-21.8435
-22.0239
-22.2515
-22.5209
-22.827
-23.1649
-23.5301
-23.9178
-24.3234
-24.742
-25.1688
-25.5989
-26.0273
-26.4491
-26.8597
-27.2547
-27.63
-27.982
-28.3077
-28.6048
-28.8717
-29.1073
-29.3114
-29.4843
-29.6269
-29.7406
-29.8271
-29.8886
-29.9273
-29.9453
)
;
    }
    right
    {
        type            calculated;
        value           nonuniform List<scalar> 
32
(
-7.69648
-7.69479
-7.69158
-7.68705
-7.68139
-7.67476
-7.66729
-7.65911
-7.65032
-7.64103
-7.63132
-7.62127
-7.61095
-7.60041
-7.58973
-7.57893
-7.56807
-7.55719
-7.5463
-7.53545
-7.52466
-7.51398
-7.50349
-7.49327
-7.48346
-7.47419
-7.46562
-7.45786
-7.45094
-7.44474
-7.43894
-7.43402
)
;
    }
    interface
    {
        type            calculated;
        value           nonuniform List<scalar> 
64
(
-29.9495
-30.2875
-31.0262
-32.3257
-34.553
-38.6689
-48.208
-91.37
33.8109
-13.6466
-47.6528
21.3674
-8.76965
-32.0863
13.6047
-7.39598
-25.6395
13.0723
-2.35832
-7.40881
-15.1541
0.781202
-6.56577
-12.2411
-1.78659
-6.72399
-10.42
-3.81583
-6.87242
-8.20281
-11.0449
-4.32266
-7.18143
-9.25505
-5.44208
-7.24339
-8.64374
-6.08473
-7.33053
-8.415
-6.21127
-7.12278
-7.43132
-7.88726
-6.99971
-7.42835
-7.76568
-7.16303
-7.45771
-7.68452
-7.28561
-7.47562
-7.56279
-7.75521
-7.30219
-7.50183
-7.66927
-7.34243
-7.50646
-7.7029
-7.21247
-7.38402
-7.42013
-7.43194
)
;
    }
    bottom
    {
        type            calculated;
        value           nonuniform List<scalar> 
64
(
-21.632
-21.5493
-21.3849
-21.1409
-20.8209
-20.4296
-19.9735
-19.4603
-18.8992
-18.3004
-17.6746
-17.0328
-16.3854
-15.7421
-15.1115
-14.5008
-13.9159
-13.3613
-12.8399
-12.3537
-11.9033
-11.4885
-11.1085
-10.762
-10.4469
-10.1614
-9.90331
-9.67033
-9.4603
-9.27115
-9.1009
-8.94773
-8.80998
-8.68614
-8.57487
-8.47495
-8.38532
-8.30499
-8.23309
-8.16882
-8.11146
-8.06034
-8.01485
-7.97442
-7.93853
-7.9067
-7.87848
-7.85348
-7.83132
-7.81169
-7.79429
-7.77887
-7.76521
-7.75312
-7.74245
-7.73307
-7.72489
-7.71781
-7.71181
-7.70683
-7.70287
-7.6999
-7.69792
-7.69693
)
;
    }
    defaultFaces
    {
        type            empty;
    }
}


// ************************************************************************* //
