/*--------------------------------*- C++ -*----------------------------------*\
| =========                 |                                                 |
| \\      /  F ield         | OpenFOAM: The Open Source CFD Toolbox           |
|  \\    /   O peration     | Version:  5.x                                   |
|   \\  /    A nd           | Web:      www.OpenFOAM.org                      |
|    \\/     M anipulation  |                                                 |
\*---------------------------------------------------------------------------*/
FoamFile
{
    version     2.0;
    format      ascii;
    class       volScalarField;
    location    "4.8";
    object      gradTy;
}
// * * * * * * * * * * * * * * * * * * * * * * * * * * * * * * * * * * * * * //

dimensions      [0 -1 0 1 0 0 0];

internalField   nonuniform List<scalar> 
2048
(
-20.3984
-20.3036
-20.115
-19.8348
-19.4667
-19.0155
-18.4881
-17.8928
-17.2395
-16.5394
-15.8043
-15.0463
-14.2773
-13.5082
-12.7492
-12.0087
-11.2938
-10.6102
-9.96182
-9.35138
-8.78033
-8.24905
-7.75705
-7.30319
-6.88583
-6.503
-6.15252
-5.83211
-5.53947
-5.27238
-5.02871
-4.80647
-4.60386
-4.41923
-4.25108
-4.09809
-3.95903
-3.83281
-3.71841
-3.61489
-3.52138
-3.43704
-3.36111
-3.29282
-3.23148
-3.17643
-3.12705
-3.08277
-3.04306
-3.00746
-2.97554
-2.94695
-2.92136
-2.8985
-2.87817
-2.86017
-2.84439
-2.83072
-2.81908
-2.80943
-2.80173
-2.79597
-2.79213
-2.79022
-20.4751
-20.3794
-20.189
-19.906
-19.5337
-19.0771
-18.5429
-17.9396
-17.2774
-16.5676
-15.8227
-15.0552
-14.2772
-13.5001
-12.7341
-11.9879
-11.2685
-10.5816
-9.93104
-9.31944
-8.74808
-8.21717
-7.7261
-7.27356
-6.85779
-6.47673
-6.12809
-5.80953
-5.51869
-5.25332
-5.01124
-4.79048
-4.5892
-4.40576
-4.2387
-4.08669
-3.94852
-3.82311
-3.70947
-3.60666
-3.51382
-3.43012
-3.35478
-3.28706
-3.22626
-3.17171
-3.12279
-3.07893
-3.0396
-3.00434
-2.97272
-2.94438
-2.919
-2.89633
-2.87613
-2.85825
-2.84255
-2.82893
-2.81733
-2.80771
-2.80003
-2.79427
-2.79044
-2.78853
-20.6208
-20.5235
-20.3299
-20.0416
-19.6617
-19.1948
-18.6477
-18.029
-17.3494
-16.6212
-15.8575
-15.0715
-14.2764
-13.4839
-12.7047
-11.9476
-11.2197
-10.5266
-9.87208
-9.25838
-8.68654
-8.15647
-7.66724
-7.2173
-6.80463
-6.42696
-6.08185
-5.76683
-5.47945
-5.21734
-4.9783
-4.76031
-4.56154
-4.38037
-4.21535
-4.06517
-3.92868
-3.80482
-3.6926
-3.59113
-3.49954
-3.41704
-3.34283
-3.27619
-3.2164
-3.1628
-3.11475
-3.07169
-3.03309
-2.99847
-2.96741
-2.93955
-2.91458
-2.89224
-2.87231
-2.85463
-2.83908
-2.82557
-2.81405
-2.80446
-2.79681
-2.79107
-2.78725
-2.78534
-20.8273
-20.7281
-20.5301
-20.2346
-19.8441
-19.3628
-18.7973
-18.1565
-17.452
-16.697
-15.906
-15.0936
-14.2738
-13.4593
-12.6613
-11.8887
-11.149
-10.4474
-9.78738
-9.17097
-8.59872
-8.07009
-7.5837
-7.13761
-6.72947
-6.35673
-6.01672
-5.70678
-5.42431
-5.16685
-4.93211
-4.71804
-4.52281
-4.34481
-4.18263
-4.03502
-3.90086
-3.77914
-3.66891
-3.56931
-3.47949
-3.39866
-3.32606
-3.26094
-3.20258
-3.15031
-3.1035
-3.06157
-3.02398
-2.99027
-2.96
-2.93282
-2.90842
-2.88654
-2.86697
-2.84957
-2.83423
-2.82087
-2.80943
-2.79991
-2.79229
-2.78657
-2.78275
-2.78085
-21.0877
-20.9861
-20.7832
-20.4792
-20.0759
-19.5767
-18.9879
-18.3188
-17.5819
-16.7922
-15.9659
-15.1193
-14.2679
-13.4254
-12.6035
-11.8117
-11.0573
-10.3452
-9.67876
-9.05939
-8.48708
-7.96068
-7.47825
-7.03732
-6.63512
-6.26877
-5.93531
-5.63187
-5.35567
-5.10409
-4.87477
-4.6656
-4.47476
-4.30068
-4.142
-3.99755
-3.86627
-3.7472
-3.63943
-3.54214
-3.45451
-3.37578
-3.30518
-3.24196
-3.1854
-3.13481
-3.08955
-3.04903
-3.01272
-2.98013
-2.95085
-2.92451
-2.90081
-2.8795
-2.86039
-2.84333
-2.82823
-2.81503
-2.80371
-2.79425
-2.78666
-2.78096
-2.77714
-2.77524
-21.3953
-21.2916
-21.0836
-20.7706
-20.353
-19.833
-19.2165
-18.5131
-17.7367
-16.9045
-16.0349
-15.1467
-14.2571
-13.381
-12.531
-11.7165
-10.945
-10.2211
-9.54764
-8.92543
-8.35371
-7.83057
-7.35333
-6.91892
-6.52409
-6.16553
-5.84001
-5.54439
-5.27567
-5.0311
-4.80817
-4.60474
-4.41901
-4.24946
-4.09482
-3.95401
-3.82604
-3.71001
-3.60508
-3.51046
-3.42538
-3.34909
-3.28083
-3.21985
-3.1654
-3.11679
-3.07336
-3.0345
-2.99968
-2.96842
-2.94029
-2.91494
-2.89206
-2.87141
-2.8528
-2.83612
-2.82129
-2.80827
-2.79705
-2.78765
-2.78009
-2.77439
-2.77057
-2.76867
-21.7444
-21.6388
-21.4263
-21.1046
-20.672
-20.1292
-19.4809
-18.7374
-17.9143
-17.0315
-16.1107
-15.1736
-14.2396
-13.3249
-12.4427
-11.6028
-10.8123
-10.0757
-9.39512
-8.77058
-8.20043
-7.6818
-7.21115
-6.7847
-6.39863
-6.04924
-5.73297
-5.44641
-5.18632
-4.94975
-4.73407
-4.53709
-4.35703
-4.19249
-4.0423
-3.90548
-3.78115
-3.66847
-3.56668
-3.47502
-3.39278
-3.31923
-3.25361
-3.19515
-3.1431
-3.09673
-3.05536
-3.01838
-2.98524
-2.95546
-2.92863
-2.90438
-2.88241
-2.86249
-2.84444
-2.82816
-2.8136
-2.80075
-2.78963
-2.78027
-2.77272
-2.76702
-2.76319
-2.76129
-22.1292
-22.0226
-21.8069
-21.4775
-21.0303
-20.4633
-19.7798
-18.9904
-18.1129
-17.1712
-16.1912
-15.198
-14.2135
-13.2556
-12.3378
-11.4702
-10.6595
-9.90961
-9.22214
-8.59617
-8.02889
-7.51627
-7.05375
-6.63674
-6.26084
-5.92195
-5.61617
-5.33981
-5.08941
-4.86175
-4.65407
-4.46412
-4.29018
-4.13098
-3.98552
-3.85295
-3.73249
-3.62339
-3.52496
-3.43649
-3.35732
-3.28674
-3.22401
-3.16834
-3.11894
-3.07504
-3.03593
-3.00101
-2.96971
-2.94156
-2.91614
-2.89309
-2.8721
-2.85296
-2.83549
-2.81962
-2.80533
-2.79264
-2.78159
-2.77225
-2.76469
-2.75897
-2.75512
-2.75322
-22.5444
-22.4379
-22.221
-21.8863
-21.4258
-20.8342
-20.1124
-19.2711
-18.3313
-17.3218
-16.274
-15.2174
-14.1768
-13.1715
-12.2154
-11.3183
-10.4864
-9.72317
-9.0295
-8.40339
-7.84064
-7.33577
-6.88305
-6.477
-6.11264
-5.78549
-5.49138
-5.22633
-4.98659
-4.76869
-4.56965
-4.38716
-4.21964
-4.06599
-3.92543
-3.79727
-3.68084
-3.57549
-3.48057
-3.39545
-3.31952
-3.25212
-3.1925
-3.13985
-3.09332
-3.05208
-3.01543
-2.98271
-2.95338
-2.92697
-2.90306
-2.88129
-2.86135
-2.84302
-2.82614
-2.81068
-2.79663
-2.78407
-2.77307
-2.76372
-2.75613
-2.75037
-2.74648
-2.74457
-22.9845
-22.8798
-22.6646
-22.3279
-21.857
-21.2415
-20.4787
-19.5792
-18.5682
-17.4813
-16.3568
-15.2295
-14.1275
-13.0712
-12.0745
-11.1466
-10.293
-9.51677
-8.81795
-8.19339
-7.63716
-7.14203
-6.70087
-6.30731
-5.95581
-5.64158
-5.36021
-5.10748
-4.87935
-4.67198
-4.48213
-4.30743
-4.14648
-3.99847
-3.86287
-3.73919
-3.6269
-3.52539
-3.43408
-3.35241
-3.27984
-3.21578
-3.15947
-3.11005
-3.06659
-3.0282
-2.99414
-2.96375
-2.9365
-2.91192
-2.88961
-2.86918
-2.85034
-2.83284
-2.81656
-2.80147
-2.78764
-2.77516
-2.76417
-2.75478
-2.74712
-2.7413
-2.73736
-2.73543
-23.4441
-23.3433
-23.1337
-22.7998
-22.3228
-21.6852
-20.8794
-19.9151
-18.8228
-17.6477
-16.437
-15.2318
-14.0635
-12.9534
-11.9144
-10.9549
-10.0796
-9.29077
-8.58817
-7.96728
-7.41995
-6.93674
-6.509
-6.12941
-5.79198
-5.49173
-5.22411
-4.98467
-4.76904
-4.57295
-4.39275
-4.22603
-4.07166
-3.92924
-3.79856
-3.67938
-3.57125
-3.47362
-3.38597
-3.30781
-3.23868
-3.17808
-3.12527
-3.07928
-3.03907
-3.00369
-2.97235
-2.94439
-2.9193
-2.89663
-2.87597
-2.85695
-2.83924
-2.82259
-2.80687
-2.79212
-2.77846
-2.76602
-2.75499
-2.74551
-2.73775
-2.73185
-2.72786
-2.72591
-23.9177
-23.8235
-23.6243
-23.2995
-22.8224
-22.1664
-21.316
-20.2794
-19.0943
-17.8188
-16.5118
-15.2216
-13.9828
-12.8166
-11.7345
-10.7431
-9.84618
-9.04551
-8.34079
-7.72615
-7.19051
-6.72162
-6.30917
-5.94498
-5.62268
-5.33734
-5.08437
-4.85911
-4.65687
-4.4728
-4.30265
-4.14393
-3.996
-3.85899
-3.73311
-3.61836
-3.5144
-3.42067
-3.33669
-3.26204
-3.19637
-3.13933
-3.09018
-3.04782
-3.01105
-2.97881
-2.95029
-2.92484
-2.90196
-2.88125
-2.8623
-2.84473
-2.8282
-2.81239
-2.79721
-2.78275
-2.76919
-2.75674
-2.74561
-2.736
-2.72811
-2.7221
-2.71803
-2.71606
-24.3998
-24.3151
-24.1322
-23.8245
-23.3554
-22.6864
-21.7909
-20.6736
-19.3817
-17.9922
-16.5783
-15.1959
-13.8832
-12.6599
-11.5343
-10.5114
-9.59323
-8.78132
-8.07637
-7.47111
-6.95042
-6.49839
-6.1031
-5.75559
-5.44929
-5.17963
-4.9421
-4.73185
-4.54391
-4.37264
-4.21288
-4.06201
-3.9202
-3.78831
-3.66701
-3.55661
-3.45681
-3.36696
-3.28662
-3.21542
-3.15317
-3.09976
-3.05447
-3.01595
-2.98277
-2.95381
-2.92818
-2.90527
-2.88465
-2.86593
-2.84873
-2.83267
-2.81734
-2.80238
-2.78768
-2.77345
-2.75993
-2.74739
-2.73611
-2.72632
-2.71824
-2.7121
-2.70794
-2.70596
-24.8848
-24.8131
-24.6533
-24.372
-23.9216
-23.2476
-22.3076
-21.0998
-19.6842
-18.1649
-16.6331
-15.1517
-13.7627
-12.4824
-11.3139
-10.2603
-9.3213
-8.49843
-7.79532
-7.20329
-6.70136
-6.26881
-5.89246
-5.56277
-5.27307
-5.01967
-4.79828
-4.6038
-4.43112
-4.27353
-4.12444
-3.98105
-3.84483
-3.71766
-3.60065
-3.49451
-3.39886
-3.31284
-3.23608
-3.16824
-3.1093
-3.05956
-3.01833
-2.98389
-2.95448
-2.92888
-2.90621
-2.88585
-2.86749
-2.85078
-2.83536
-2.82087
-2.80679
-2.79266
-2.77838
-2.76428
-2.75072
-2.73803
-2.72654
-2.71651
-2.70819
-2.70189
-2.69766
-2.69567
-25.3672
-25.3123
-25.1831
-24.9394
-24.5207
-23.8528
-22.8707
-21.5609
-20.0003
-18.3334
-16.6726
-15.0857
-13.6194
-12.2838
-11.0735
-9.99046
-9.03122
-8.19697
-7.49786
-6.92385
-6.44519
-6.03469
-5.67891
-5.36799
-5.0951
-4.85837
-4.65373
-4.47565
-4.31929
-4.17649
-4.03832
-3.9017
-3.77036
-3.64742
-3.53432
-3.43235
-3.34088
-3.25863
-3.18539
-3.12076
-3.06492
-3.01886
-2.98196
-2.95188
-2.92638
-2.90423
-2.88454
-2.86671
-2.85059
-2.83591
-2.82228
-2.80941
-2.79666
-2.78335
-2.76938
-2.75531
-2.74164
-2.72871
-2.71695
-2.70663
-2.69802
-2.69153
-2.68722
-2.68524
-25.8416
-25.8073
-25.7168
-25.5234
-25.1524
-24.5056
-23.4864
-22.0608
-20.3277
-18.4932
-16.6929
-14.9942
-13.4515
-12.0643
-10.8135
-9.70315
-8.72425
-7.87676
-7.18384
-6.63406
-6.18404
-5.79781
-5.46403
-5.17267
-4.91632
-4.6965
-4.50917
-4.34791
-4.2091
-4.08253
-3.95552
-3.82452
-3.69711
-3.57787
-3.4682
-3.37038
-3.28321
-3.20461
-3.13481
-3.07322
-3.02011
-2.97773
-2.94551
-2.92012
-2.89866
-2.88002
-2.86332
-2.84794
-2.83404
-2.82138
-2.80955
-2.79837
-2.78705
-2.77455
-2.76075
-2.7466
-2.73272
-2.71947
-2.70739
-2.69672
-2.68775
-2.68104
-2.67667
-2.67474
-26.3028
-26.2929
-26.2495
-26.1202
-25.8161
-25.2101
-24.1627
-22.6052
-20.6628
-18.6388
-16.6905
-14.8731
-13.2574
-11.8248
-10.5346
-9.39995
-8.40226
-7.53718
-6.85264
-6.33534
-5.92045
-5.55989
-5.24933
-4.97826
-4.73743
-4.53463
-4.36526
-4.22088
-4.10102
-3.99271
-3.87714
-3.74989
-3.62526
-3.50924
-3.40238
-3.30876
-3.22615
-3.151
-3.08463
-3.02589
-2.97489
-2.93616
-2.90912
-2.88886
-2.87149
-2.85641
-2.84269
-2.82962
-2.81791
-2.80726
-2.79718
-2.7878
-2.77806
-2.76636
-2.75252
-2.73816
-2.72401
-2.71033
-2.69789
-2.68683
-2.67739
-2.67044
-2.66606
-2.66423
-26.7459
-26.764
-26.776
-26.7255
-26.5104
-25.9708
-24.9098
-23.2016
-20.9994
-18.7633
-16.6623
-14.7176
-13.0358
-11.5676
-10.2371
-9.08291
-8.06807
-7.17683
-6.50293
-6.02939
-5.65756
-5.32245
-5.03615
-4.78632
-4.55882
-4.37321
-4.22265
-4.09453
-3.99536
-3.90819
-3.80443
-3.67796
-3.55481
-3.44177
-3.33678
-3.24763
-3.17007
-3.09797
-3.03509
-2.97904
-2.9292
-2.89406
-2.87296
-2.85836
-2.84501
-2.83352
-2.82279
-2.8118
-2.80223
-2.79361
-2.78518
-2.77773
-2.76982
-2.75892
-2.74472
-2.73001
-2.71555
-2.70132
-2.6885
-2.67703
-2.66698
-2.65974
-2.65542
-2.65376
-27.1665
-27.2157
-27.2909
-27.3343
-27.233
-26.7923
-25.7409
-23.8607
-21.3278
-18.8581
-16.6072
-14.5217
-12.7852
-11.2966
-9.92087
-8.7545
-7.72605
-6.79306
-6.13239
-5.71838
-5.39941
-5.08654
-4.82568
-4.59867
-4.38043
-4.21249
-4.08219
-3.96847
-3.89213
-3.8303
-3.73895
-3.60856
-3.48561
-3.37576
-3.27117
-3.18706
-3.11541
-3.04556
-2.98645
-2.93309
-2.88284
-2.85124
-2.83717
-2.82892
-2.81933
-2.81146
-2.80378
-2.79449
-2.78703
-2.78051
-2.77351
-2.76816
-2.76244
-2.75238
-2.73733
-2.72214
-2.7074
-2.69242
-2.67925
-2.66738
-2.65649
-2.64895
-2.64479
-2.6434
-27.5606
-27.6435
-27.7886
-27.9405
-27.9801
-27.6787
-26.6719
-24.5984
-21.6318
-18.9129
-16.5272
-14.2768
-12.5047
-11.0187
-9.58393
-8.41761
-7.38303
-6.38124
-5.73743
-5.40519
-5.1514
-4.85236
-4.61879
-4.4177
-4.20156
-4.05258
-3.94508
-3.84177
-3.79102
-3.76063
-3.6827
-3.54098
-3.41727
-3.31174
-3.20506
-3.12706
-3.06283
-2.99367
-2.93898
-2.88861
-2.83543
-2.80741
-2.80196
-2.80098
-2.79448
-2.79033
-2.78585
-2.77762
-2.77234
-2.76804
-2.76207
-2.75906
-2.7561
-2.74693
-2.73028
-2.71455
-2.69962
-2.68361
-2.67017
-2.65797
-2.64591
-2.63804
-2.63421
-2.63322
-27.925
-28.0433
-28.2637
-28.5373
-28.7462
-28.6327
-27.7228
-25.438
-21.8858
-18.9153
-16.4299
-13.9709
-12.1933
-10.7449
-9.22135
-8.07549
-7.04976
-5.9336
-5.31285
-5.09375
-4.92087
-4.61857
-4.41604
-4.24682
-4.02043
-3.8934
-3.81328
-3.71273
-3.69128
-3.70114
-3.63848
-3.47367
-3.3492
-3.25067
-3.13754
-3.06762
-3.01325
-2.94189
-2.89292
-2.84648
-2.78631
-2.7621
-2.76762
-2.77508
-2.77038
-2.77018
-2.76928
-2.76106
-2.75815
-2.75637
-2.75069
-2.75036
-2.75097
-2.74285
-2.72342
-2.70717
-2.69236
-2.67481
-2.66131
-2.64897
-2.63519
-2.62697
-2.62373
-2.6233
-28.2572
-28.4117
-28.7107
-29.1171
-29.5235
-29.6549
-28.917
-26.4149
-22.0495
-18.851
-16.3328
-13.5847
-11.8501
-10.493
-8.8228
-7.73168
-6.7431
-5.4375
-4.85159
-4.7894
-4.71803
-4.38136
-4.21757
-4.09117
-3.8336
-3.73473
-3.68999
-3.5785
-3.59164
-3.65421
-3.61021
-3.40384
-3.28056
-3.19425
-3.06707
-3.00865
-2.96817
-2.88931
-2.84855
-2.80807
-2.73443
-2.7147
-2.73453
-2.752
-2.74673
-2.75102
-2.75445
-2.74451
-2.74444
-2.74576
-2.7391
-2.74193
-2.74729
-2.74051
-2.71644
-2.69993
-2.6858
-2.66587
-2.65268
-2.64057
-2.6242
-2.61569
-2.6134
-2.61371
-28.5555
-28.7459
-29.1248
-29.6718
-30.3019
-30.7422
-30.2811
-27.5828
-22.0605
-18.7041
-16.268
-13.0884
-11.4744
-10.2908
-8.36912
-7.38988
-6.48915
-4.87281
-4.34463
-4.49933
-4.55719
-4.13293
-4.02309
-3.95869
-3.63509
-3.5762
-3.58038
-3.43454
-3.49018
-3.62272
-3.60354
-3.32671
-3.2103
-3.14539
-2.99109
-2.95003
-2.92987
-2.8343
-2.8061
-2.77549
-2.67808
-2.66443
-2.70319
-2.73279
-2.72295
-2.73284
-2.74196
-2.72748
-2.73118
-2.73664
-2.72686
-2.73357
-2.74532
-2.74047
-2.70885
-2.69274
-2.68027
-2.6565
-2.64431
-2.6331
-2.61276
-2.60411
-2.60326
-2.60456
-28.8187
-29.0438
-29.5014
-30.1928
-31.0685
-31.8864
-31.8431
-29.0234
-21.8236
-18.4577
-16.2904
-12.4343
-11.0654
-10.1816
-7.82742
-7.05388
-6.32784
-4.20805
-3.7813
-4.23289
-4.45852
-3.85945
-3.8319
-3.86159
-3.41498
-3.41734
-3.49267
-3.27382
-3.38438
-3.61006
-3.6267
-3.23467
-3.13723
-3.10888
-2.90549
-2.89158
-2.90186
-2.77402
-2.7658
-2.75197
-2.61462
-2.61036
-2.67428
-2.71895
-2.69799
-2.71557
-2.73274
-2.70914
-2.71833
-2.72967
-2.7133
-2.72503
-2.74537
-2.74353
-2.69985
-2.68548
-2.67629
-2.64625
-2.63622
-2.62701
-2.60051
-2.59213
-2.59339
-2.59591
-29.0466
-29.3042
-29.837
-30.6718
-31.808
-33.0719
-33.6293
-30.86
-21.1963
-18.096
-16.4877
-11.5483
-10.623
-10.2305
-7.14403
-6.72749
-6.31909
-3.39495
-3.15016
-4.00165
-4.45047
-3.53823
-3.64306
-3.81851
-3.15753
-3.25775
-3.43951
-3.08564
-3.27113
-3.61992
-3.69169
-3.11586
-3.06009
-3.09223
-2.80381
-2.83315
-2.88952
-2.70388
-2.72786
-2.7424
-2.54
-2.55148
-2.64865
-2.7126
-2.6701
-2.69911
-2.72819
-2.68819
-2.70582
-2.72592
-2.69739
-2.71598
-2.74776
-2.75085
-2.68819
-2.678
-2.67468
-2.63436
-2.6284
-2.62301
-2.58694
-2.57962
-2.58385
-2.58787
-29.2397
-29.5266
-30.1288
-31.101
-32.5033
-34.2743
-35.6581
-33.2769
-19.9684
-17.6063
-16.9943
-10.3167
-10.1486
-10.5348
-6.23507
-6.41448
-6.55119
-2.36071
-2.441
-3.81903
-4.57308
-3.13381
-3.45567
-3.85729
-2.83849
-3.09725
-3.43984
-2.85403
-3.14714
-3.65598
-3.81586
-2.95251
-2.97785
-3.10692
-2.67615
-2.77465
-2.90084
-2.61674
-2.69246
-2.75397
-2.44814
-2.4869
-2.62731
-2.71671
-2.63659
-2.68334
-2.73044
-2.66263
-2.69359
-2.72697
-2.67766
-2.70603
-2.75279
-2.76412
-2.672
-2.67016
-2.67665
-2.6197
-2.62084
-2.62209
-2.57121
-2.56649
-2.57473
-2.5805
-29.399
-29.7115
-30.3752
-31.4736
-33.136
-35.4593
-37.9308
-36.5454
-17.8361
-16.9835
-18.0088
-8.56894
-9.64579
-11.2355
-4.97388
-6.1188
-7.15168
-0.99756
-1.64834
-3.69911
-4.88242
-2.59301
-3.26938
-4.01863
-2.42156
-2.93631
-3.52133
-2.55554
-3.00955
-3.72115
-4.02421
-2.71849
-2.89001
-3.16988
-2.50768
-2.7162
-2.94751
-2.50188
-2.6598
-2.79712
-2.33006
-2.41612
-2.61131
-2.73542
-2.59339
-2.66817
-2.74258
-2.6295
-2.68163
-2.73515
-2.65193
-2.69485
-2.76067
-2.78583
-2.64857
-2.66188
-2.68403
-2.60053
-2.61355
-2.62571
-2.55208
-2.55269
-2.56616
-2.5739
-29.5261
-29.86
-30.5757
-31.7845
-33.6882
-36.5817
-40.4165
-41.0588
-14.367
-16.2361
-19.8161
-6.05535
-9.1233
-12.534
-3.1749
-5.84493
-8.30121
0.85114
-0.777047
-3.65414
-5.45642
-1.83846
-3.08524
-4.36069
-1.85373
-2.7766
-3.72332
-2.1563
-2.8571
-3.81636
-4.35228
-2.37637
-2.79714
-3.30539
-2.27678
-2.65836
-3.04624
-2.34364
-2.63014
-2.88668
-2.17274
-2.33951
-2.60164
-2.77455
-2.53464
-2.6536
-2.76911
-2.58449
-2.66998
-2.75382
-2.61713
-2.68221
-2.7714
-2.81951
-2.61402
-2.65316
-2.69945
-2.57439
-2.60656
-2.63594
-2.52777
-2.53834
-2.55831
-2.56813
-29.6229
-29.9737
-30.7311
-32.0305
-34.1435
-37.5868
-43.0316
-47.3775
-8.95751
-15.3941
-22.8139
-2.41896
-8.59784
-14.7109
-0.573638
-5.59859
-10.2507
3.40887
0.149172
-3.69033
-6.4025
-0.760634
-2.90685
-4.96477
-1.05948
-2.62191
-4.1005
-1.60831
-2.69206
-3.93868
-4.84999
-1.87359
-2.70169
-3.54743
-1.95259
-2.60243
-3.22042
-2.11979
-2.60385
-3.04331
-1.95768
-2.25904
-2.59886
-2.84212
-2.45207
-2.63981
-2.81636
-2.52157
-2.65885
-2.78772
-2.56897
-2.66824
-2.78459
-2.87019
-2.56296
-2.64417
-2.72663
-2.53777
-2.59997
-2.65568
-2.49573
-2.52379
-2.55139
-2.56331
-29.6917
-30.055
-30.843
-32.2109
-34.4894
-38.4143
-45.6113
-56.2858
-0.778554
-14.5207
-27.5438
2.83897
-8.09893
-18.1494
3.19763
-5.38793
-13.3419
6.98855
1.07569
-3.8013
-7.8672
0.791806
-2.74193
-5.942
0.0663792
-2.47938
-4.72723
-0.844617
-2.52291
-4.07853
-5.58648
-1.13784
-2.60901
-3.94235
-1.49214
-2.55096
-3.5021
-1.79951
-2.58165
-3.29523
-1.65902
-2.1793
-2.60267
-2.94913
-2.33436
-2.6273
-2.89306
-2.43239
-2.64871
-2.84337
-2.50154
-2.65364
-2.79925
-2.94493
-2.48804
-2.63543
-2.77075
-2.48587
-2.59405
-2.68894
-2.45242
-2.50983
-2.54572
-2.55955
-29.7351
-30.1064
-30.9143
-32.3272
-34.7186
-39.005
-47.8715
-68.8613
11.2878
-13.7268
-34.7274
10.3995
-7.67529
-23.3621
8.63843
-5.22516
-18.032
12.0202
1.90061
-3.95847
-10.0482
3.02352
-2.60449
-7.44108
1.66716
-2.36121
-5.70247
0.22642
-2.36827
-4.21589
-6.65604
-0.0715193
-2.5287
-4.55205
-0.836883
-2.50837
-3.93425
-1.34107
-2.56473
-3.68029
-1.24137
-2.10889
-2.61125
-3.11052
-2.16628
-2.61711
-3.01106
-2.30574
-2.64044
-2.92958
-2.40691
-2.64015
-2.81344
-3.05346
-2.37947
-2.62789
-2.83881
-2.41226
-2.58931
-2.74118
-2.3931
-2.49793
-2.54169
-2.55704
-29.7556
-30.1308
-30.9483
-32.3831
-34.8309
-39.3123
-49.3609
-86.5574
28.7237
-13.1893
-45.3051
21.1731
-7.40291
-31.0212
16.4127
-5.12866
-24.9206
19.0839
2.45368
-4.0977
-13.2085
6.20601
-2.51714
-9.65671
3.93436
-2.2865
-7.15504
1.72841
-2.26166
-4.31489
-8.18498
1.45505
-2.47605
-5.45698
0.0916361
-2.48139
-4.57298
-0.688779
-2.55468
-4.24795
-0.656692
-2.06187
-2.61984
-3.3459
-1.92742
-2.61061
-3.18563
-2.12641
-2.63515
-3.05764
-2.27411
-2.63063
-2.82343
-3.20858
-2.22402
-2.62285
-2.93973
-2.3081
-2.58628
-2.81926
-2.31103
-2.49008
-2.53946
-2.55566
)
;

boundaryField
{
    left
    {
        type            calculated;
        value           nonuniform List<scalar> 
32
(
-20.3984
-20.4751
-20.6208
-20.8273
-21.0877
-21.3953
-21.7444
-22.1292
-22.5444
-22.9845
-23.4441
-23.9177
-24.3998
-24.8848
-25.3672
-25.8416
-26.3028
-26.7459
-27.1665
-27.5606
-27.925
-28.2572
-28.5555
-28.8187
-29.0466
-29.2397
-29.399
-29.5261
-29.6229
-29.6917
-29.7351
-29.7556
)
;
    }
    right
    {
        type            calculated;
        value           nonuniform List<scalar> 
32
(
-2.79022
-2.78853
-2.78534
-2.78085
-2.77524
-2.76867
-2.76129
-2.75322
-2.74457
-2.73543
-2.72591
-2.71606
-2.70596
-2.69567
-2.68524
-2.67474
-2.66423
-2.65376
-2.6434
-2.63322
-2.6233
-2.61371
-2.60456
-2.59591
-2.58787
-2.5805
-2.5739
-2.56813
-2.56331
-2.55955
-2.55704
-2.55566
)
;
    }
    interface
    {
        type            calculated;
        value           nonuniform List<scalar> 
64
(
-29.7605
-30.1366
-30.9565
-32.3965
-34.8582
-39.3905
-49.8443
-96.8936
38.9946
-13.0116
-51.575
27.4927
-7.31601
-35.5573
20.9776
-5.09973
-28.9992
23.2069
2.63596
-4.1521
-15.0709
8.07351
-2.48943
-10.9711
5.26185
-2.26289
-8.01879
2.60485
-2.22565
-4.34911
-9.08231
2.35186
-2.45892
-5.99457
0.635415
-2.47279
-4.95189
-0.306221
-2.55159
-4.58439
-0.315691
-2.04633
-2.62331
-3.48484
-1.78736
-2.60847
-3.28919
-2.02137
-2.63339
-3.13369
-2.19657
-2.62729
-2.82676
-3.29958
-2.13265
-2.62112
-2.99963
-2.2471
-2.58523
-2.86569
-2.26331
-2.48744
-2.53877
-2.55519
)
;
    }
    bottom
    {
        type            calculated;
        value           nonuniform List<scalar> 
64
(
-20.3784
-20.2838
-20.0957
-19.8163
-19.4492
-18.9995
-18.4738
-17.8806
-17.2296
-16.532
-15.7994
-15.0439
-14.2772
-13.5103
-12.7531
-12.0141
-11.3004
-10.6176
-9.9698
-9.35968
-8.78872
-8.25734
-7.76511
-7.31091
-6.89315
-6.50986
-6.1589
-5.83801
-5.54491
-5.27737
-5.03328
-4.81066
-4.6077
-4.42275
-4.25432
-4.10107
-3.96178
-3.83535
-3.72075
-3.61704
-3.52335
-3.43886
-3.36276
-3.29432
-3.23285
-3.17767
-3.12816
-3.08377
-3.04397
-3.00828
-2.97628
-2.94762
-2.92197
-2.89907
-2.8787
-2.86068
-2.84488
-2.83119
-2.81954
-2.80988
-2.80217
-2.79641
-2.79257
-2.79066
)
;
    }
    defaultFaces
    {
        type            empty;
    }
}


// ************************************************************************* //
