/*--------------------------------*- C++ -*----------------------------------*\
| =========                 |                                                 |
| \\      /  F ield         | OpenFOAM: The Open Source CFD Toolbox           |
|  \\    /   O peration     | Version:  5.x                                   |
|   \\  /    A nd           | Web:      www.OpenFOAM.org                      |
|    \\/     M anipulation  |                                                 |
\*---------------------------------------------------------------------------*/
FoamFile
{
    version     2.0;
    format      ascii;
    class       volScalarField;
    location    "4.8";
    object      T;
}
// * * * * * * * * * * * * * * * * * * * * * * * * * * * * * * * * * * * * * //

dimensions      [0 0 0 1 0 0 0];

internalField   nonuniform List<scalar> 
2048
(
9.8536
9.85428
9.85563
9.85763
9.86027
9.8635
9.86728
9.87154
9.87622
9.88123
9.88649
9.89192
9.89743
9.90294
9.90838
9.91369
9.91881
9.92372
9.92837
9.93276
9.93686
9.94068
9.94421
9.94748
9.95048
9.95323
9.95575
9.95806
9.96016
9.96209
9.96384
9.96544
9.9669
9.96823
9.96944
9.97054
9.97154
9.97245
9.97327
9.97401
9.97469
9.97529
9.97584
9.97633
9.97677
9.97717
9.97753
9.97785
9.97813
9.97839
9.97862
9.97882
9.97901
9.97917
9.97932
9.97945
9.97956
9.97966
9.97974
9.97981
9.97987
9.97991
9.97994
9.97995
9.56663
9.56864
9.57265
9.57861
9.58644
9.59603
9.60724
9.6199
9.63379
9.64868
9.66431
9.68042
9.69677
9.71312
9.72925
9.74499
9.76018
9.77471
9.78848
9.80145
9.81358
9.82486
9.83531
9.84494
9.8538
9.86193
9.86937
9.87617
9.88239
9.88806
9.89323
9.89795
9.90225
9.90617
9.90974
9.91298
9.91593
9.91861
9.92104
9.92324
9.92522
9.92701
9.92863
9.93008
9.93138
9.93255
9.93359
9.93453
9.93538
9.93613
9.93681
9.93742
9.93796
9.93844
9.93888
9.93926
9.93959
9.93988
9.94013
9.94033
9.9405
9.94062
9.9407
9.94074
9.29069
9.294
9.30058
9.31037
9.32324
9.33902
9.35748
9.37833
9.40121
9.42573
9.45147
9.478
9.50489
9.53176
9.55826
9.58408
9.60899
9.63278
9.65532
9.67651
9.69632
9.71474
9.73178
9.74748
9.76192
9.77515
9.78726
9.79832
9.80842
9.81764
9.82605
9.83372
9.84071
9.84709
9.85289
9.85817
9.86297
9.86733
9.87128
9.87485
9.87807
9.88098
9.8836
9.88596
9.88807
9.88997
9.89167
9.89319
9.89456
9.89578
9.89688
9.89787
9.89875
9.89954
9.90024
9.90086
9.90141
9.90188
9.90228
9.90262
9.90288
9.90308
9.90322
9.90328
9.02453
9.0291
9.0382
9.05173
9.06954
9.09141
9.117
9.14592
9.17767
9.2117
9.2474
9.28417
9.32142
9.3586
9.39521
9.43085
9.46518
9.49792
9.52891
9.55801
9.58517
9.61039
9.6337
9.65517
9.67488
9.69294
9.70945
9.72454
9.73831
9.75087
9.76233
9.77278
9.78231
9.79099
9.7989
9.8061
9.81264
9.81857
9.82395
9.82882
9.83321
9.83717
9.84073
9.84394
9.84681
9.84939
9.8517
9.85377
9.85563
9.85729
9.85879
9.86013
9.86133
9.8624
9.86336
9.8642
9.86495
9.86559
9.86614
9.8666
9.86696
9.86724
9.86742
9.86751
8.76712
8.77292
8.78448
8.8017
8.82438
8.85226
8.88494
8.92188
8.96247
9.00596
9.05158
9.09852
9.14602
9.19336
9.23992
9.28516
9.32866
9.37009
9.40922
9.44591
9.48011
9.51182
9.54108
9.56801
9.5927
9.61531
9.63596
9.65482
9.67203
9.68772
9.70204
9.71509
9.72699
9.73784
9.74772
9.75672
9.76489
9.77231
9.77903
9.7851
9.79059
9.79553
9.79997
9.80396
9.80755
9.81076
9.81364
9.81621
9.81853
9.8206
9.82246
9.82413
9.82563
9.82697
9.82816
9.82922
9.83015
9.83096
9.83165
9.83222
9.83268
9.83302
9.83325
9.83337
8.51761
8.52462
8.5386
8.55944
8.58694
8.6208
8.66055
8.70554
8.755
8.808
8.86356
8.92068
8.97839
9.03581
9.09218
9.14685
9.19931
9.24917
9.29617
9.34017
9.38109
9.41897
9.45388
9.48595
9.51533
9.5422
9.56673
9.58912
9.60953
9.62814
9.64511
9.66059
9.67471
9.68758
9.6993
9.70997
9.71967
9.72847
9.73644
9.74365
9.75015
9.756
9.76126
9.76599
9.77022
9.77401
9.77741
9.78046
9.78319
9.78564
9.78784
9.78981
9.79158
9.79317
9.79458
9.79584
9.79695
9.79791
9.79873
9.79942
9.79997
9.80038
9.80065
9.80079
8.27531
8.2835
8.29984
8.32425
8.35653
8.39636
8.4432
8.49631
8.55473
8.61735
8.68295
8.7503
8.81824
8.88571
8.9518
9.01576
9.07699
9.13506
9.18967
9.24067
9.28801
9.33175
9.37199
9.4089
9.44268
9.47353
9.50167
9.52733
9.55072
9.57203
9.59147
9.60921
9.62538
9.64013
9.65357
9.6658
9.67691
9.687
9.69613
9.70439
9.71183
9.71852
9.72454
9.72993
9.73477
9.73909
9.74297
9.74645
9.74956
9.75235
9.75486
9.75711
9.75913
9.76095
9.76257
9.76401
9.76528
9.76639
9.76734
9.76813
9.76876
9.76924
9.76955
9.76971
8.03965
8.04898
8.06763
8.09554
8.13255
8.17834
8.23232
8.29365
8.3612
8.43359
8.50938
8.58709
8.66532
8.74284
8.8186
8.89173
8.96156
9.02762
9.08958
9.1473
9.20076
9.25004
9.2953
9.33675
9.37462
9.40917
9.44066
9.46935
9.49548
9.5193
9.54101
9.56083
9.5789
9.59539
9.61042
9.6241
9.63653
9.64781
9.65802
9.66724
9.67555
9.68302
9.68973
9.69573
9.70111
9.70593
9.71024
9.7141
9.71756
9.72066
9.72345
9.72596
9.72821
9.73023
9.73205
9.73366
9.73509
9.73633
9.7374
9.73829
9.739
9.73954
9.7399
9.74008
7.81016
7.82059
7.84147
7.8728
7.91448
7.96622
8.02743
8.09712
8.17398
8.25638
8.34257
8.43078
8.51941
8.60701
8.69239
8.77458
8.85285
8.92668
8.99575
9.0599
9.11917
9.17369
9.22366
9.26934
9.31102
9.34899
9.38357
9.41504
9.44369
9.4698
9.49361
9.51534
9.53517
9.55326
9.56976
9.58478
9.59843
9.61081
9.62202
9.63213
9.64124
9.64942
9.65675
9.66332
9.66919
9.67444
9.67914
9.68335
9.68712
9.69051
9.69355
9.69629
9.69875
9.70096
9.70295
9.70473
9.7063
9.70768
9.70886
9.70984
9.71063
9.71123
9.71163
9.71182
7.5865
7.59797
7.62098
7.65562
7.70189
7.75956
7.82805
7.90629
7.99271
8.08539
8.18222
8.28116
8.3803
8.47802
8.57299
8.66415
8.7507
8.83209
8.908
8.97831
9.04309
9.10252
9.15688
9.2065
9.2517
9.29283
9.33023
9.36425
9.39521
9.4234
9.44912
9.47261
9.49405
9.51363
9.53149
9.54774
9.56252
9.57592
9.58803
9.59897
9.6088
9.61763
9.62553
9.6326
9.63892
9.64456
9.64961
9.65413
9.65818
9.66181
9.66508
9.66803
9.67068
9.67308
9.67523
9.67715
9.67886
9.68036
9.68165
9.68273
9.68359
9.68424
9.68468
9.6849
7.36838
7.38083
7.40584
7.44364
7.49438
7.55795
7.6338
7.72078
7.81706
7.92034
8.02812
8.138
8.24779
8.35569
8.46022
8.56025
8.65492
8.74367
8.82617
8.90234
8.9723
9.03634
9.09479
9.14804
9.19648
9.2405
9.28049
9.31682
9.34986
9.37996
9.40742
9.43251
9.45544
9.47638
9.49548
9.51288
9.52869
9.54303
9.55598
9.56767
9.57817
9.58758
9.596
9.60352
9.61023
9.61622
9.62157
9.62637
9.63066
9.63452
9.63799
9.64112
9.64395
9.6465
9.6488
9.65087
9.65271
9.65432
9.65571
9.65688
9.65782
9.65853
9.659
9.65923
7.1556
7.16892
7.19579
7.23656
7.2916
7.36099
7.44429
7.54024
7.64672
7.76098
7.88006
8.00113
8.12173
8.23985
8.35391
8.46271
8.56535
8.66124
8.75007
8.83179
8.90663
8.97495
9.03718
9.09377
9.14518
9.19184
9.23416
9.27259
9.30751
9.33931
9.36835
9.3949
9.41918
9.44138
9.46164
9.48009
9.49685
9.51204
9.52578
9.53815
9.54925
9.5592
9.56807
9.57599
9.58304
9.58934
9.59496
9.59999
9.60451
9.60856
9.61221
9.6155
9.61848
9.62118
9.62362
9.62582
9.62778
9.62951
9.631
9.63225
9.63326
9.63402
9.63453
9.63478
6.948
6.9621
6.99062
7.03413
7.09325
7.16835
7.25915
7.36433
7.48143
7.60711
7.73785
7.8704
8.00196
8.13034
8.25389
8.37134
8.48178
8.5846
8.67949
8.76646
8.84585
8.91813
8.98383
9.04349
9.0976
9.14664
9.19108
9.23137
9.26797
9.30131
9.33176
9.35964
9.38517
9.40852
9.42984
9.44926
9.4669
9.48288
9.49732
9.51031
9.52197
9.53239
9.54167
9.54993
9.55729
9.56384
9.5697
9.57494
9.57964
9.58387
9.58767
9.59111
9.59423
9.59706
9.59963
9.60195
9.60402
9.60586
9.60744
9.60878
9.60986
9.61067
9.61121
9.61148
6.74549
6.76024
6.79019
6.83614
6.89907
6.9797
7.07804
7.19276
7.32094
7.45854
7.60136
7.74566
7.88832
8.02699
8.15997
8.28595
8.40402
8.51356
8.61424
8.70614
8.78974
8.86566
8.93454
8.99698
9.05354
9.10473
9.15105
9.19301
9.2311
9.26578
9.29751
9.32659
9.35327
9.37768
9.39998
9.42029
9.43873
9.45543
9.47051
9.48408
9.49624
9.50708
9.51672
9.52528
9.53289
9.53967
9.54573
9.55115
9.55601
9.56038
9.56432
9.56788
9.57112
9.57407
9.57676
9.57919
9.58138
9.58332
9.585
9.58642
9.58756
9.58842
9.589
9.58929
6.54803
6.56329
6.59438
6.64242
6.70879
6.79473
6.90063
7.02521
7.16504
7.31512
7.47047
7.6268
7.78068
7.92964
8.07196
8.20634
8.33188
8.44793
8.55412
8.65061
8.73807
8.81731
8.88907
8.95403
9.0128
9.06591
9.11391
9.15734
9.19672
9.23259
9.26544
9.29563
9.32335
9.34874
9.37195
9.39307
9.41225
9.42961
9.44528
9.45937
9.47198
9.48319
9.49314
9.50195
9.50978
9.51676
9.52298
9.52855
9.53354
9.53803
9.54209
9.54576
9.5491
9.55216
9.55496
9.55751
9.5598
9.56184
9.56361
9.56511
9.56632
9.56723
9.56784
9.56814
6.3556
6.3712
6.40314
6.45284
6.52221
6.61312
6.72655
6.86139
7.01353
7.17673
7.34506
7.51373
7.67892
7.83812
7.98969
8.13232
8.26513
8.3875
8.49892
8.59965
8.69061
8.77284
8.8472
8.91442
8.97518
9.03001
9.07949
9.12419
9.16468
9.20156
9.23541
9.2666
9.29529
9.3216
9.34564
9.36751
9.38736
9.40533
9.42154
9.4361
9.44911
9.46066
9.47087
9.47989
9.4879
9.49502
9.50138
9.50707
9.51218
9.51678
9.52093
9.52469
9.52812
9.53128
9.53418
9.53683
9.53923
9.54137
9.54323
9.5448
9.54608
9.54704
9.54769
9.54801
6.16822
6.18398
6.21641
6.26731
6.33914
6.43459
6.55546
6.70098
6.86626
7.04328
7.22507
7.40636
7.5829
7.75225
7.91295
8.06365
8.20357
8.33208
8.44846
8.55304
8.64712
8.73204
8.80871
8.87795
8.94049
8.99685
9.0476
9.0934
9.13482
9.17256
9.20728
9.23939
9.26898
9.29614
9.32095
9.34351
9.36397
9.38249
9.39919
9.41418
9.42757
9.43941
9.44983
9.45902
9.46717
9.47441
9.48088
9.48668
9.49188
9.49655
9.50078
9.50462
9.50813
9.51137
9.51437
9.51713
9.51963
9.52186
9.52381
9.52546
9.5268
9.52782
9.52849
9.52882
5.98591
6.00165
6.03421
6.08575
6.1594
6.25883
6.38699
6.54369
6.72311
6.91473
7.11043
7.30463
7.49251
7.67185
7.84155
8.00012
8.14696
8.28149
8.40254
8.51054
8.60734
8.69465
8.77337
8.84441
8.90855
8.96624
9.0181
9.06483
9.10701
9.14542
9.18089
9.21387
9.24432
9.27225
9.29779
9.32099
9.342
9.36102
9.37816
9.39355
9.40728
9.41938
9.42997
9.43928
9.44753
9.45486
9.46142
9.46729
9.47257
9.47731
9.4816
9.4855
9.48907
9.49239
9.49548
9.49834
9.50094
9.50326
9.5053
9.50703
9.50844
9.5095
9.51021
9.51055
5.80874
5.82426
5.85654
5.90813
5.98286
6.08558
6.22072
6.38918
6.58401
6.79106
7.00107
7.20848
7.40763
7.5967
7.77529
7.9415
8.09506
8.23554
8.36098
8.47194
8.57102
8.66045
8.74097
8.81358
8.87918
8.93803
8.99082
9.03834
9.0811
9.12001
9.15612
9.18994
9.22119
9.24986
9.27608
9.29984
9.32135
9.34084
9.35838
9.37413
9.38819
9.4005
9.4112
9.42059
9.42892
9.43632
9.44293
9.44887
9.4542
9.459
9.46334
9.46728
9.47089
9.47428
9.47747
9.48043
9.48312
9.48554
9.48766
9.48947
9.49095
9.49206
9.49279
9.49315
5.63674
5.65186
5.68345
5.73445
5.80942
5.91454
6.05621
6.23706
6.44898
6.67231
6.89693
7.11792
7.32812
7.52659
7.71397
7.88754
8.04759
8.1941
8.32365
8.43699
8.53789
8.62923
8.7113
8.78526
8.85222
8.91207
8.9656
9.0138
9.05696
9.09617
9.13282
9.16747
9.1995
9.22885
9.25573
9.28001
9.30194
9.32186
9.33977
9.35584
9.37022
9.38272
9.39349
9.40291
9.41128
9.41872
9.42537
9.43137
9.43674
9.44157
9.44595
9.44991
9.45356
9.457
9.46029
9.46334
9.46613
9.46865
9.47086
9.47274
9.47429
9.47545
9.47621
9.47657
5.46999
5.4845
5.51501
5.56474
5.63901
5.74545
5.89298
6.0869
6.31813
6.55857
6.79789
7.03294
7.25387
7.46121
7.65742
7.83798
8.00426
8.15704
8.2904
8.40545
8.50766
8.60077
8.68417
8.75925
8.82751
8.88819
8.9423
8.99109
9.03448
9.07377
9.11085
9.1464
9.17917
9.20914
9.23667
9.2614
9.28369
9.30403
9.32225
9.33861
9.35332
9.36598
9.37676
9.38616
9.39456
9.40201
9.40868
9.41473
9.42012
9.42497
9.42938
9.43336
9.43701
9.44051
9.44391
9.44706
9.44993
9.45255
9.45484
9.4568
9.45842
9.45963
9.46041
9.46077
5.30852
5.32225
5.35127
5.39906
5.4716
5.57808
5.73047
5.93815
6.19174
6.44996
6.70377
6.95364
7.18474
7.40024
7.60552
7.79256
7.96468
8.12429
8.26114
8.37707
8.48002
8.5749
8.65937
8.73532
8.80493
8.86628
8.92076
8.97014
9.01355
9.05265
9.09005
9.12663
9.16012
9.19063
9.21884
9.24394
9.26651
9.28727
9.30575
9.32237
9.33746
9.35024
9.36095
9.37028
9.37871
9.38615
9.39281
9.39891
9.40431
9.40916
9.41361
9.41758
9.42122
9.42476
9.42828
9.43152
9.43448
9.43721
9.43957
9.4416
9.44331
9.44456
9.44536
9.44573
5.15238
5.16516
5.19232
5.2375
5.30723
5.41223
5.56808
5.7901
6.07028
6.34665
6.61428
6.88018
7.12061
7.34323
7.55819
7.75102
7.92842
8.09585
8.2358
8.35157
8.4546
8.55149
8.63673
8.71324
8.78439
8.84619
8.90081
8.95085
8.99409
9.03268
9.07026
9.10813
9.14228
9.17322
9.20219
9.22757
9.25032
9.27154
9.29022
9.30704
9.32258
9.33546
9.34601
9.35522
9.36368
9.37109
9.37772
9.38387
9.38927
9.3941
9.39859
9.40253
9.40613
9.40971
9.41337
9.4167
9.41974
9.42258
9.42502
9.42711
9.42892
9.43022
9.43103
9.43139
5.0016
5.01328
5.03824
5.08017
5.14596
5.24775
5.40513
5.6418
5.95458
6.24887
6.5289
6.81288
7.06135
7.2896
7.5155
7.71308
7.8949
8.07184
8.21437
8.32867
8.43101
8.53044
8.6161
8.69275
8.76583
8.82782
8.88226
8.9332
8.97602
9.01371
9.05131
9.09086
9.1256
9.15681
9.18668
9.21222
9.23501
9.2568
9.27558
9.29254
9.30866
9.3216
9.33189
9.3409
9.34944
9.35677
9.36334
9.36959
9.37495
9.37974
9.3843
9.38819
9.3917
9.3953
9.39916
9.40257
9.40567
9.40865
9.41115
9.41329
9.41522
9.41657
9.41738
9.41773
4.85617
4.86664
4.8891
4.92719
4.98795
5.08459
5.24094
5.49194
5.8459
6.15688
6.44683
6.75228
7.00682
7.23856
7.47766
7.67847
7.86336
8.05251
8.19686
8.30803
8.40876
8.51178
8.59732
8.67354
8.74926
8.81104
8.86489
8.91718
8.95929
8.99558
9.03298
9.07486
9.11002
9.14126
9.17231
9.19784
9.22049
9.24302
9.26178
9.27875
9.29569
9.30862
9.31852
9.32727
9.33595
9.34317
9.34963
9.35602
9.36132
9.36604
9.3707
9.37452
9.37791
9.3815
9.38562
9.3891
9.39223
9.39538
9.39792
9.40011
9.40219
9.40358
9.40437
9.40471
4.7161
4.72525
4.74498
4.77872
4.83337
4.92279
5.07477
5.33867
5.74613
6.07094
6.36686
6.69925
6.95688
7.18905
7.44519
7.64692
7.83279
8.03837
8.18333
8.28931
8.38727
8.49562
8.58027
8.65522
8.73476
8.79577
8.84844
8.90284
8.94386
8.97813
9.01503
9.06022
9.09551
9.12641
9.15911
9.18436
9.20661
9.23021
9.24877
9.26558
9.28369
9.29651
9.30585
9.31424
9.32319
9.33024
9.33652
9.34316
9.34835
9.35295
9.35778
9.36149
9.3647
9.36826
9.37273
9.37625
9.37938
9.38275
9.38531
9.38751
9.38979
9.39121
9.39198
9.39229
4.58134
4.58911
4.60592
4.63488
4.68249
4.76254
4.90598
5.17942
5.65803
5.99132
6.28716
6.65515
6.91137
7.13959
7.41894
7.61814
7.80182
8.0302
8.17384
8.27212
8.3658
8.48227
8.56482
8.63729
8.72254
8.78191
8.83256
8.89032
8.92969
8.96121
8.99713
9.04709
9.08202
9.11206
9.14714
9.17175
9.19322
9.21841
9.23647
9.25287
9.27267
9.28524
9.29382
9.30173
9.31116
9.31795
9.32396
9.33099
9.336
9.34041
9.34553
9.34908
9.35203
9.35552
9.3605
9.364
9.36707
9.37075
9.37328
9.37546
9.37802
9.37945
9.38017
9.38045
4.45184
4.45819
4.47196
4.49584
4.53558
4.60417
4.73406
5.01055
5.58554
5.91821
6.20511
6.62201
6.87012
7.08815
7.40033
7.59189
7.76859
8.02924
8.16843
8.25605
8.34343
8.47225
8.55086
8.61912
8.71295
8.76936
8.81681
8.87984
8.91679
8.94469
8.97888
9.03575
9.06952
9.09793
9.13655
9.15994
9.18012
9.20771
9.22485
9.24044
9.26273
9.27478
9.28237
9.28965
9.29987
9.30625
9.31187
9.31952
9.32425
9.32836
9.33394
9.33727
9.33988
9.34322
9.34892
9.35232
9.35525
9.35938
9.36181
9.36391
9.36685
9.36826
9.36891
9.36915
4.32755
4.33245
4.34311
4.3617
4.39296
4.44819
4.55881
4.827
5.53413
5.85168
6.11704
6.60281
6.8329
7.03201
7.39145
7.56788
7.73061
8.03731
8.16707
8.24071
8.31897
8.46639
8.53828
8.59985
8.70654
8.75803
8.80059
8.87174
8.90512
8.92842
8.95976
9.02662
9.05797
9.08367
9.12754
9.14889
9.16705
9.19825
9.21386
9.22807
9.25398
9.26512
9.27146
9.27789
9.28936
9.29513
9.30016
9.30877
9.31305
9.31674
9.32303
9.32603
9.32821
9.33129
9.33803
9.34119
9.34387
9.34862
9.35088
9.3528
9.35629
9.35763
9.35818
9.35837
4.20836
4.21182
4.21937
4.23257
4.25496
4.2953
4.38059
4.62179
5.51131
5.79159
6.01793
6.60174
6.7994
6.96748
7.39533
7.54585
7.68455
8.05699
8.16957
8.22572
8.2909
8.46588
8.52695
8.57838
8.70415
8.7478
8.78314
8.86656
8.89465
8.91232
8.93907
9.0203
9.04731
9.0688
9.12046
9.13855
9.15367
9.19026
9.20345
9.21544
9.24661
9.25621
9.26101
9.2663
9.27971
9.28455
9.28873
9.29879
9.30239
9.30545
9.31282
9.31533
9.31699
9.31964
9.32785
9.33058
9.33284
9.33851
9.34044
9.34208
9.34633
9.34752
9.34794
9.34808
4.09417
4.09622
4.10068
4.10852
4.12189
4.14631
4.20051
4.38549
5.52715
5.73747
5.90104
6.62458
6.76919
6.88971
7.41619
7.52551
7.62606
8.09187
8.17545
8.21084
8.25728
8.47245
8.51671
8.55325
8.70695
8.73853
8.7635
8.86503
8.88527
8.89637
8.91592
9.0176
9.03746
9.05272
9.11577
9.12884
9.13955
9.18407
9.19357
9.20219
9.24091
9.24798
9.251
9.25472
9.271
9.27448
9.27743
9.28964
9.29223
9.2944
9.30336
9.30517
9.30621
9.30815
9.31846
9.32047
9.32209
9.32908
9.33049
9.33167
9.33701
9.3379
9.33817
9.33825
3.98485
3.98553
3.987
3.98959
3.99401
4.00215
4.02093
4.10543
5.59495
5.68835
5.75762
6.67916
6.74167
6.7924
7.45972
7.50656
7.54948
8.14685
8.18379
8.19598
8.21559
8.48839
8.50736
8.5226
8.71653
8.73004
8.74038
8.86816
8.87683
8.88065
8.88915
9.01965
9.02829
9.03464
9.11411
9.11969
9.12414
9.18014
9.18417
9.18782
9.23724
9.24035
9.24139
9.24293
9.26341
9.26488
9.2661
9.28144
9.28254
9.28344
9.29471
9.29549
9.29585
9.2967
9.30995
9.31083
9.31151
9.32037
9.32098
9.32148
9.32834
9.32874
9.32883
9.32886
)
;

boundaryField
{
    left
    {
        type            zeroGradient;
    }
    right
    {
        type            zeroGradient;
    }
    interface
    {
        type            fixedValue;
        value           nonuniform List<scalar> 
64
(
3.9314
3.9314
3.9314
3.9314
3.9314
3.9314
3.9314
3.9314
5.66498
5.66498
5.66498
6.72853
6.72853
6.72853
7.4974
7.4974
7.4974
8.18853
8.18853
8.18853
8.18853
8.50289
8.50289
8.50289
8.72598
8.72598
8.72598
8.87283
8.87283
8.87283
8.87283
9.02388
9.02388
9.02388
9.11525
9.11525
9.11525
9.17959
9.17959
9.17959
9.23667
9.23667
9.23667
9.23667
9.2602
9.2602
9.2602
9.27781
9.27781
9.27781
9.29077
9.29077
9.29077
9.29077
9.30612
9.30612
9.30612
9.31634
9.31634
9.31634
9.32427
9.32427
9.32427
9.32427
)
;
    }
    bottom
    {
        type            fixedValue;
        value           uniform 10;
    }
    defaultFaces
    {
        type            empty;
    }
}


// ************************************************************************* //
