/*--------------------------------*- C++ -*----------------------------------*\
| =========                 |                                                 |
| \\      /  F ield         | OpenFOAM: The Open Source CFD Toolbox           |
|  \\    /   O peration     | Version:  5.x                                   |
|   \\  /    A nd           | Web:      www.OpenFOAM.org                      |
|    \\/     M anipulation  |                                                 |
\*---------------------------------------------------------------------------*/
FoamFile
{
    version     2.0;
    format      ascii;
    class       volScalarField;
    location    "9.2";
    object      gradTy;
}
// * * * * * * * * * * * * * * * * * * * * * * * * * * * * * * * * * * * * * //

dimensions      [0 -1 0 1 0 0 0];

internalField   nonuniform List<scalar> 
2048
(
-20.1581
-20.0613
-19.8687
-19.5827
-19.2066
-18.7457
-18.2065
-17.5977
-16.9292
-16.2122
-15.4587
-14.6809
-13.8908
-13.0996
-12.3173
-11.5528
-10.8132
-10.1041
-9.42976
-8.79286
-8.19492
-7.63634
-7.11671
-6.63491
-6.18933
-5.77804
-5.39891
-5.04971
-4.72825
-4.43237
-4.16008
-3.90953
-3.67906
-3.46721
-3.27267
-3.09429
-2.93103
-2.78197
-2.64624
-2.52304
-2.41159
-2.31115
-2.22097
-2.14032
-2.06849
-2.00478
-1.94849
-1.89898
-1.85561
-1.81779
-1.78497
-1.75662
-1.73227
-1.71147
-1.69383
-1.67898
-1.66659
-1.65639
-1.64811
-1.64155
-1.63651
-1.63286
-1.63048
-1.62931
-20.2364
-20.1387
-19.9444
-19.6555
-19.2753
-18.8089
-18.2629
-17.646
-16.9684
-16.2417
-15.4783
-14.6908
-13.8917
-13.0923
-12.303
-11.5327
-10.7885
-10.076
-9.39946
-8.76135
-8.16306
-7.60484
-7.08611
-6.6056
-6.16158
-5.75201
-5.37468
-5.02727
-4.70753
-4.41328
-4.14247
-3.89327
-3.66399
-3.4532
-3.25959
-3.08204
-2.91953
-2.77116
-2.63609
-2.51351
-2.40267
-2.30282
-2.21323
-2.13317
-2.0619
-1.99874
-1.94299
-1.89398
-1.85109
-1.81373
-1.78132
-1.75336
-1.72936
-1.70889
-1.69154
-1.67695
-1.6648
-1.6548
-1.6467
-1.64028
-1.63536
-1.63179
-1.62948
-1.62834
-20.3852
-20.286
-20.0884
-19.7941
-19.4063
-18.9295
-18.3705
-17.7382
-17.0431
-16.2977
-15.5153
-14.7092
-13.8927
-13.0777
-12.275
-11.4936
-10.7408
-10.0221
-9.34138
-8.70109
-8.10226
-7.54483
-7.0279
-6.54994
-6.10896
-5.70273
-5.32884
-4.98486
-4.66842
-4.37726
-4.10928
-3.86261
-3.63558
-3.42677
-3.23491
-3.05891
-2.89782
-2.75075
-2.6169
-2.4955
-2.3858
-2.28708
-2.19861
-2.11964
-2.04946
-1.98734
-1.9326
-1.88455
-1.84257
-1.80606
-1.77445
-1.74722
-1.72389
-1.70403
-1.68724
-1.67314
-1.66143
-1.65182
-1.64404
-1.6379
-1.6332
-1.6298
-1.62759
-1.62651
-20.5961
-20.4949
-20.2929
-19.9915
-19.593
-19.1017
-18.5242
-17.8696
-17.1494
-16.3769
-15.5669
-14.7341
-13.8926
-13.0554
-12.2336
-11.4365
-10.6716
-9.94417
-9.2579
-8.61479
-8.01547
-7.45941
-6.94527
-6.47111
-6.03459
-5.63319
-5.26428
-4.92523
-4.61351
-4.32675
-4.06277
-3.81967
-3.59579
-3.38974
-3.2003
-3.02647
-2.86733
-2.72207
-2.58992
-2.47015
-2.36206
-2.26492
-2.17802
-2.1006
-2.03194
-1.97131
-1.91799
-1.87131
-1.83061
-1.7953
-1.76481
-1.73861
-1.71623
-1.69723
-1.68122
-1.66782
-1.65673
-1.64766
-1.64035
-1.63459
-1.63021
-1.62704
-1.62499
-1.62399
-20.8619
-20.7584
-20.5515
-20.2415
-19.8302
-19.3209
-18.72
-18.0368
-17.284
-16.4765
-15.6308
-14.7634
-13.8899
-13.0243
-12.1783
-11.3617
-10.5817
-9.84367
-9.15078
-8.50459
-7.90511
-7.35122
-6.84096
-6.37189
-5.94124
-5.54613
-5.18363
-4.8509
-4.5452
-4.26401
-4.00507
-3.76642
-3.54645
-3.34378
-3.15733
-2.98613
-2.82938
-2.68632
-2.55626
-2.43851
-2.3324
-2.23724
-2.1523
-2.07683
-2.0101
-1.95133
-1.89981
-1.85483
-1.81575
-1.78194
-1.75285
-1.72794
-1.70674
-1.68882
-1.67377
-1.66125
-1.65093
-1.64253
-1.63581
-1.63054
-1.62654
-1.62367
-1.62182
-1.62092
-21.1759
-21.0702
-20.8583
-20.5394
-20.1137
-19.5835
-18.9547
-18.237
-17.4443
-16.5938
-15.7045
-14.795
-13.8828
-12.9832
-12.1086
-11.269
-10.4716
-9.72146
-9.02137
-8.37219
-7.77321
-7.2225
-6.71739
-6.25478
-5.83141
-5.44398
-5.08927
-4.76415
-4.46566
-4.19111
-3.93812
-3.70468
-3.48921
-3.29044
-3.10738
-2.93918
-2.78514
-2.64459
-2.51692
-2.4015
-2.29769
-2.20483
-2.1222
-2.04904
-1.98457
-1.92801
-1.87861
-1.83564
-1.79845
-1.76641
-1.73896
-1.71556
-1.69575
-1.67908
-1.66517
-1.65366
-1.64424
-1.63664
-1.63059
-1.62589
-1.62236
-1.61984
-1.61821
-1.61743
-21.5322
-21.4247
-21.2083
-20.8806
-20.4399
-19.8869
-19.2261
-18.468
-17.6281
-16.7266
-15.7856
-14.8266
-13.8695
-12.9307
-12.0235
-11.158
-10.3413
-9.57816
-8.8707
-8.21906
-7.62156
-7.0753
-6.57673
-6.12202
-5.70734
-5.32898
-4.98337
-4.66708
-4.37692
-4.10998
-3.86372
-3.63612
-3.42563
-3.23111
-3.05172
-2.88677
-2.73568
-2.59787
-2.47281
-2.35994
-2.25869
-2.16841
-2.08838
-2.01784
-1.95595
-1.9019
-1.85491
-1.81422
-1.77916
-1.74912
-1.7235
-1.70181
-1.68354
-1.66829
-1.65565
-1.64528
-1.63687
-1.63014
-1.62486
-1.62081
-1.61779
-1.61566
-1.6143
-1.61365
-21.9248
-21.8163
-21.5967
-21.2615
-20.8063
-20.2289
-19.5328
-18.7283
-17.8337
-16.8728
-15.8718
-14.8561
-13.8479
-12.8653
-11.922
-11.0283
-10.1909
-9.41422
-8.69967
-8.04645
-7.45175
-6.91147
-6.421
-5.97569
-5.57112
-5.20315
-4.86788
-4.5616
-4.28082
-4.02236
-3.78353
-3.56225
-3.35707
-3.16704
-2.99149
-2.82994
-2.68193
-2.547
-2.42471
-2.31457
-2.21607
-2.12859
-2.05144
-1.9838
-1.92477
-1.87351
-1.82916
-1.79098
-1.75827
-1.7304
-1.70681
-1.68696
-1.6704
-1.65667
-1.64541
-1.63628
-1.62897
-1.62321
-1.61877
-1.61542
-1.61297
-1.61127
-1.6102
-1.60969
-22.3483
-22.2401
-22.0194
-21.6789
-21.2105
-20.6085
-19.8738
-19.0171
-18.0596
-17.0302
-15.9608
-14.881
-13.8161
-12.7854
-11.8032
-10.8793
-10.0204
-9.22998
-8.50901
-7.85553
-7.26531
-6.73277
-6.25209
-5.81772
-5.42465
-5.06835
-4.74461
-4.44943
-4.17901
-3.92986
-3.69906
-3.48447
-3.28479
-3.09933
-2.92769
-2.76959
-2.62472
-2.49276
-2.37332
-2.26602
-2.17041
-2.08594
-2.0119
-1.94741
-1.89151
-1.84327
-1.8018
-1.76632
-1.73613
-1.7106
-1.68916
-1.6713
-1.65654
-1.64445
-1.63466
-1.62685
-1.62071
-1.61598
-1.61243
-1.60984
-1.608
-1.60677
-1.60601
-1.60566
-22.7971
-22.6908
-22.472
-22.1297
-21.651
-21.0251
-20.2492
-19.334
-18.3046
-17.1971
-16.0501
-14.8989
-13.7718
-12.6894
-11.6659
-10.7107
-9.82961
-9.02577
-8.29941
-7.6474
-7.06369
-6.54092
-6.07183
-5.64994
-5.2697
-4.92625
-4.61516
-4.33213
-4.07303
-3.83397
-3.61169
-3.40403
-3.20991
-3.02898
-2.86119
-2.70651
-2.56479
-2.4358
-2.31925
-2.21485
-2.12223
-2.04092
-1.9702
-1.90911
-1.85659
-1.81159
-1.77319
-1.74057
-1.71304
-1.68998
-1.67082
-1.65504
-1.64218
-1.63181
-1.62357
-1.61712
-1.61221
-1.60857
-1.60596
-1.60417
-1.60299
-1.60225
-1.60182
-1.60164
-23.2657
-23.1634
-22.9504
-22.6113
-22.1266
-21.4787
-20.6597
-19.6791
-18.5678
-17.3712
-16.1372
-14.9072
-13.713
-12.576
-11.5095
-10.5221
-9.61866
-8.80187
-8.07152
-7.42312
-6.84836
-6.33759
-5.88197
-5.47409
-5.10789
-4.77838
-4.48096
-4.21109
-3.96426
-3.73604
-3.52272
-3.32207
-3.1334
-2.95683
-2.79273
-2.64137
-2.50276
-2.37671
-2.26305
-2.16154
-2.07196
-1.99394
-1.92675
-1.86931
-1.82039
-1.77883
-1.74367
-1.71405
-1.6893
-1.6688
-1.652
-1.6384
-1.62751
-1.61892
-1.61226
-1.60724
-1.60359
-1.60107
-1.59945
-1.5985
-1.598
-1.5978
-1.5977
-1.59771
-23.7485
-23.6528
-23.4507
-23.121
-22.6366
-21.9704
-21.1066
-20.0532
-18.8483
-17.5504
-16.2192
-14.9031
-13.6375
-12.4437
-11.3333
-10.3133
-9.38768
-8.55858
-7.8259
-7.18376
-6.62081
-6.12448
-5.68426
-5.29182
-4.94074
-4.62611
-4.34331
-4.08754
-3.85392
-3.63732
-3.43333
-3.23963
-3.05612
-2.88361
-2.72295
-2.57476
-2.43917
-2.31602
-2.20517
-2.10651
-2.01996
-1.94533
-1.88189
-1.82835
-1.78326
-1.74534
-1.71354
-1.68703
-1.66513
-1.64727
-1.63291
-1.62154
-1.61268
-1.60592
-1.60088
-1.5973
-1.59494
-1.59358
-1.59298
-1.5929
-1.59312
-1.59346
-1.59373
-1.59393
-24.2398
-24.1539
-23.9685
-23.6562
-23.1804
-22.5014
-21.5925
-20.4578
-19.1452
-17.7322
-16.293
-14.8837
-13.5432
-12.2914
-11.1368
-10.0845
-9.13699
-8.29615
-7.56306
-6.93039
-6.3826
-5.90333
-5.4804
-5.1047
-4.76961
-4.47065
-4.20329
-3.96253
-3.74313
-3.539
-3.34464
-3.15762
-2.9788
-2.80991
-2.65235
-2.50715
-2.37451
-2.25415
-2.14604
-2.05014
-1.96655
-1.89538
-1.83592
-1.78655
-1.74551
-1.71139
-1.68308
-1.65974
-1.64075
-1.62559
-1.6137
-1.60461
-1.59784
-1.59293
-1.58952
-1.58739
-1.58634
-1.58616
-1.5866
-1.58743
-1.5884
-1.58931
-1.58995
-1.59034
-24.7339
-24.6613
-24.4995
-24.2143
-23.7577
-23.0742
-22.1207
-20.8949
-19.4575
-17.9135
-16.3551
-14.8458
-13.4281
-12.1184
-10.9201
-9.83621
-8.86713
-8.01477
-7.28336
-6.66411
-6.13542
-5.6759
-5.27209
-4.91426
-4.59573
-4.31304
-4.06186
-3.83693
-3.63284
-3.44219
-3.25773
-3.07685
-2.90205
-2.73621
-2.58132
-2.43895
-2.30918
-2.19152
-2.08604
-1.99274
-1.91194
-1.84429
-1.78908
-1.74421
-1.70745
-1.67727
-1.65252
-1.63239
-1.61635
-1.6039
-1.59452
-1.58776
-1.5831
-1.58006
-1.57828
-1.57759
-1.57785
-1.57886
-1.58038
-1.58214
-1.58389
-1.58538
-1.58641
-1.58699
-25.2254
-25.1698
-25.0392
-24.7924
-24.3684
-23.6915
-22.696
-21.3674
-19.7837
-18.0907
-16.402
-14.786
-13.2901
-11.9243
-10.6832
-9.56908
-8.5789
-7.71447
-6.98692
-6.38607
-5.88113
-5.444
-5.06096
-4.72195
-4.42018
-4.15415
-3.91981
-3.71143
-3.52389
-3.34798
-3.17367
-2.99803
-2.82632
-2.6629
-2.51016
-2.37046
-2.24357
-2.12847
-2.02549
-1.9346
-1.85632
-1.7922
-1.74161
-1.70161
-1.66933
-1.64321
-1.62209
-1.60516
-1.59206
-1.58235
-1.5755
-1.57108
-1.56857
-1.5674
-1.56723
-1.56796
-1.56952
-1.57174
-1.57434
-1.57706
-1.57962
-1.58172
-1.58313
-1.58392
-25.7086
-25.6739
-25.5828
-25.3872
-25.0121
-24.3571
-23.3245
-21.8794
-20.1215
-18.2593
-16.4297
-14.7007
-13.1274
-11.7091
-10.4267
-9.28436
-8.27354
-7.39501
-6.67353
-6.09751
-5.6219
-5.20941
-4.84863
-4.52923
-4.24385
-3.99472
-3.77783
-3.58648
-3.41693
-3.25748
-3.09356
-2.92171
-2.75193
-2.59025
-2.43903
-2.30192
-2.17802
-2.06529
-1.96472
-1.87601
-1.79977
-1.73919
-1.6937
-1.65903
-1.63141
-1.60944
-1.59199
-1.5782
-1.56802
-1.56105
-1.5567
-1.55466
-1.55434
-1.55505
-1.55643
-1.55853
-1.56139
-1.56481
-1.56853
-1.57223
-1.57562
-1.57835
-1.58016
-1.58114
-26.1782
-26.1683
-26.1252
-25.9949
-25.688
-25.0749
-24.0145
-22.4364
-20.4672
-18.4136
-16.4345
-14.5855
-12.9384
-11.474
-10.1512
-8.98364
-7.95293
-7.05562
-6.34247
-5.79986
-5.36031
-4.97388
-4.63662
-4.33756
-4.06738
-3.83528
-3.63653
-3.46228
-3.31245
-3.17188
-3.01864
-2.84828
-2.67903
-2.51851
-2.36796
-2.23352
-2.11292
-2.00224
-1.90404
-1.81728
-1.7423
-1.68524
-1.64553
-1.61678
-1.59392
-1.57615
-1.56239
-1.55162
-1.54431
-1.5401
-1.53822
-1.53856
-1.54048
-1.54307
-1.54593
-1.54934
-1.55346
-1.55811
-1.56295
-1.56766
-1.57193
-1.5753
-1.57749
-1.57867
-26.6293
-26.6479
-26.6611
-26.6111
-26.3948
-25.8496
-24.7761
-23.046
-20.8145
-18.5467
-16.4135
-14.4356
-12.7217
-11.2212
-9.857
-8.66902
-7.61991
-6.69477
-5.99225
-5.49483
-5.09957
-4.73891
-4.4263
-4.14852
-3.89109
-3.67621
-3.49654
-3.3387
-3.2107
-3.09248
-2.95032
-2.77782
-2.6076
-2.44793
-2.29681
-2.16537
-2.04869
-1.93948
-1.84373
-1.75877
-1.6838
-1.6302
-1.59728
-1.57518
-1.55703
-1.54351
-1.53348
-1.52551
-1.52102
-1.51958
-1.5201
-1.52284
-1.52709
-1.53155
-1.53576
-1.54039
-1.54577
-1.55164
-1.55762
-1.56337
-1.56855
-1.57259
-1.57515
-1.5765
-27.0575
-27.1077
-27.1851
-27.2306
-27.1301
-26.6858
-25.6227
-23.7193
-21.1535
-18.6499
-16.3653
-14.2449
-12.4759
-10.9548
-9.54389
-8.34303
-7.27895
-6.30958
-5.62039
-5.18463
-4.84388
-4.50552
-4.21885
-3.96403
-3.71484
-3.51774
-3.35871
-3.21514
-3.11163
-3.02082
-2.89042
-2.71005
-2.53739
-2.37888
-2.22522
-2.09753
-1.98589
-1.87702
-1.78411
-1.70098
-1.62401
-1.57385
-1.54917
-1.53467
-1.52091
-1.51166
-1.50544
-1.49989
-1.49819
-1.49959
-1.50235
-1.50752
-1.51422
-1.52057
-1.52594
-1.53168
-1.5383
-1.54543
-1.55255
-1.55935
-1.56552
-1.57024
-1.57314
-1.57465
-27.4586
-27.5431
-27.6916
-27.8472
-27.8901
-27.5874
-26.5705
-24.4721
-21.4678
-18.7127
-16.292
-14.0046
-12.2001
-10.6816
-9.20986
-8.00865
-6.93707
-5.89513
-5.22304
-4.87224
-4.59883
-4.2738
-4.01519
-3.7866
-3.53772
-3.35991
-3.22432
-3.0904
-3.01481
-2.95879
-2.84133
-2.64399
-2.46793
-2.31201
-2.15249
-2.03
-1.92535
-1.81465
-1.72547
-1.64467
-1.5624
-1.51575
-1.50147
-1.49579
-1.48561
-1.48069
-1.4785
-1.47475
-1.47582
-1.48022
-1.48497
-1.49261
-1.50196
-1.5102
-1.51647
-1.5232
-1.53107
-1.53947
-1.54773
-1.55561
-1.56285
-1.56826
-1.57146
-1.5731
-27.8295
-27.95
-28.1749
-28.4542
-28.669
-28.5575
-27.6396
-25.3281
-21.7315
-18.7226
-16.2016
-13.7024
-11.8931
-10.413
-8.84976
-7.66923
-6.60535
-5.44319
-4.79471
-4.56171
-4.37208
-4.04223
-3.81589
-3.61989
-3.35767
-3.2026
-3.09548
-2.96237
-2.91929
-2.90868
-2.80635
-2.57765
-2.39847
-2.24857
-2.07739
-1.96273
-1.86832
-1.75178
-1.66811
-1.59101
-1.49813
-1.45532
-1.45453
-1.45927
-1.45105
-1.45065
-1.45294
-1.44997
-1.45393
-1.46163
-1.4679
-1.47807
-1.49038
-1.50058
-1.50733
-1.51491
-1.52405
-1.53379
-1.54315
-1.55211
-1.56055
-1.56666
-1.57012
-1.57183
-28.1676
-28.3248
-28.6295
-29.0438
-29.4592
-29.5965
-28.8537
-26.323
-21.9036
-18.6651
-16.1115
-13.3187
-11.554
-10.1671
-8.45288
-7.32847
-6.30122
-4.94047
-4.32795
-4.25862
-4.17431
-3.80663
-3.62111
-3.46945
-3.1708
-3.04556
-2.97576
-2.82759
-2.8235
-2.87334
-2.79021
-2.50747
-2.32804
-2.19078
-1.99781
-1.89561
-1.81679
-1.68714
-1.61234
-1.54181
-1.42978
-1.39174
-1.40884
-1.4261
-1.41692
-1.42154
-1.42921
-1.4253
-1.43247
-1.44403
-1.45103
-1.46387
-1.47958
-1.49184
-1.49846
-1.50675
-1.51723
-1.5284
-1.53882
-1.54883
-1.55868
-1.56547
-1.56909
-1.57083
-28.471
-28.6648
-29.0506
-29.6077
-30.2502
-30.7013
-30.2398
-27.5115
-21.9208
-18.5241
-16.0547
-12.8228
-11.1822
-9.97243
-7.99948
-6.99025
-6.05173
-4.36586
-3.81326
-3.97047
-4.02055
-3.55857
-3.43057
-3.34391
-2.9704
-2.88839
-2.87101
-2.68067
-2.72515
-2.85625
-2.79979
-2.42748
-2.25539
-2.14243
-1.91034
-1.82848
-1.77383
-1.61846
-1.55846
-1.49992
-1.35513
-1.32401
-1.36511
-1.39767
-1.38255
-1.39332
-1.40795
-1.40032
-1.41139
-1.42776
-1.43415
-1.44992
-1.46967
-1.48417
-1.48975
-1.49866
-1.51062
-1.52333
-1.5347
-1.54571
-1.55726
-1.56469
-1.56838
-1.57005
-28.7388
-28.9679
-29.4336
-30.1373
-31.0289
-31.8634
-31.8263
-28.9761
-21.6866
-18.2827
-16.0869
-12.1662
-10.7769
-9.87321
-7.4556
-6.65856
-5.8983
-3.68645
-3.23941
-3.70703
-3.93206
-3.28322
-3.24361
-3.25659
-2.74541
-2.73065
-2.79053
-2.51329
-2.62117
-2.86144
-2.84513
-2.32813
-2.17912
-2.10978
-1.80949
-1.76114
-1.74425
-1.54187
-1.50677
-1.4697
-1.2707
-1.25094
-1.32423
-1.37594
-1.3467
-1.36589
-1.39015
-1.37428
-1.39062
-1.41332
-1.41693
-1.43612
-1.46078
-1.47786
-1.48104
-1.49058
-1.50419
-1.51864
-1.53079
-1.54265
-1.55638
-1.56434
-1.56795
-1.56949
-28.9707
-29.2328
-29.7747
-30.6241
-31.7801
-33.0672
-33.6397
-30.842
-21.0564
-17.9246
-16.2972
-11.2732
-10.3381
-9.93632
-6.76596
-6.3374
-5.90313
-2.85182
-2.59438
-3.48041
-3.93889
-2.95625
-3.05929
-3.22787
-2.47833
-2.57193
-2.74877
-2.3129
-2.50786
-2.89339
-2.94096
-2.19467
-2.09782
-2.10266
-1.6867
-1.69343
-1.73534
-1.45113
-1.45754
-1.45771
-1.17117
-1.17129
-1.28737
-1.36364
-1.30736
-1.33913
-1.37732
-1.34599
-1.37008
-1.4015
-1.39882
-1.42234
-1.45307
-1.47328
-1.47203
-1.48241
-1.49794
-1.51439
-1.52707
-1.53953
-1.55614
-1.56444
-1.56778
-1.56909
-29.1671
-29.4591
-30.0713
-31.0603
-32.4862
-34.2879
-35.6989
-33.2957
-19.8172
-17.4372
-16.8226
-10.0277
-9.86694
-10.2612
-5.84416
-6.03073
-6.15789
-1.78606
-1.8674
-3.30462
-4.08339
-2.53982
-2.87672
-3.28821
-2.14226
-2.4121
-2.76739
-2.06088
-2.3812
-2.95645
-3.10865
-2.00495
-2.01027
-2.13606
-1.52882
-1.62528
-1.75801
-1.33656
-1.41105
-1.47367
-1.04853
-1.08395
-1.25593
-1.36457
-1.26132
-1.31292
-1.37171
-1.31364
-1.34975
-1.39346
-1.37899
-1.40848
-1.44671
-1.47096
-1.4623
-1.47412
-1.49187
-1.51069
-1.52354
-1.53614
-1.55673
-1.56499
-1.56784
-1.56884
-29.3292
-29.6473
-30.3218
-31.4389
-33.1287
-35.4906
-38.0048
-36.6124
-17.6607
-16.8153
-17.8651
-8.25575
-9.36728
-10.9928
-4.55983
-5.74261
-6.79511
-0.376825
-1.0526
-3.1943
-4.42499
-1.97712
-2.69555
-3.48218
-1.69701
-2.25171
-2.87807
-1.72997
-2.23766
-3.05403
-3.37904
-1.72651
-1.91593
-2.23213
-1.31625
-1.55691
-1.8282
-1.18362
-1.36765
-1.53162
-0.890915
-0.9884
-1.23142
-1.38404
-1.20376
-1.28723
-1.37659
-1.27447
-1.32964
-1.39087
-1.35618
-1.39448
-1.44187
-1.47164
-1.45122
-1.46568
-1.48599
-1.5077
-1.5202
-1.53222
-1.55841
-1.56599
-1.56809
-1.5687
-29.4585
-29.7983
-30.5257
-31.7548
-33.6893
-36.6296
-40.5265
-41.1907
-14.1487
-16.0674
-19.7147
-5.70275
-8.84773
-12.3373
-2.72205
-5.47749
-8.00252
1.53904
-0.154858
-3.16207
-5.0464
-1.18565
-2.51675
-3.87357
-1.08392
-2.09249
-3.12596
-1.28093
-2.0755
-3.18702
-3.79608
-1.3128
-1.81546
-2.42262
-1.02041
-1.48904
-1.96865
-0.971064
-1.32777
-1.6515
-0.681079
-0.885287
-1.21527
-1.42937
-1.12764
-1.26222
-1.39662
-1.22445
-1.30996
-1.39613
-1.32857
-1.38039
-1.4387
-1.47635
-1.43788
-1.45718
-1.48029
-1.50561
-1.51709
-1.52737
-1.56156
-1.56742
-1.5685
-1.56866
-29.557
-29.9141
-30.6837
-32.0048
-34.1516
-37.6496
-43.179
-47.5987
-8.66882
-15.2235
-22.7763
-2.00466
-8.32499
-14.5828
-0.0587237
-5.24082
-10.0409
4.19427
0.80136
-3.21409
-6.06169
-0.0486607
-2.34377
-4.55157
-0.219503
-1.93829
-3.57384
-0.658179
-1.89694
-3.35144
-4.42152
-0.698531
-1.7116
-2.75195
-0.600508
-1.42331
-2.21121
-0.668669
-1.29208
-1.86099
-0.394408
-0.777368
-1.20842
-1.51059
-1.02297
-1.23837
-1.43832
-1.15782
-1.29115
-1.4125
-1.2935
-1.36652
-1.43728
-1.48653
-1.42097
-1.44885
-1.47477
-1.50473
-1.5143
-1.52106
-1.56675
-1.56925
-1.56904
-1.56873
-29.6272
-29.9969
-30.7976
-32.1882
-34.5028
-38.4892
-45.7953
-56.6316
-0.380532
-14.3474
-27.6014
3.34696
-7.8285
-18.1224
3.8083
-5.04008
-13.2658
7.91463
1.75945
-3.343
-7.62658
1.59514
-2.18405
-5.63816
1.01245
-1.79627
-4.30712
0.215691
-1.71136
-3.53504
-5.34091
0.206161
-1.6103
-3.28079
0.00023915
-1.36278
-2.59938
-0.234471
-1.26167
-2.19782
0.00356869
-0.670843
-1.21071
-1.64133
-0.875901
-1.2167
-1.51053
-1.06652
-1.27409
-1.44443
-1.24725
-1.35355
-1.43754
-1.50413
-1.39871
-1.44118
-1.4694
-1.50541
-1.51199
-1.5126
-1.57478
-1.57137
-1.56972
-1.56895
-29.6714
-30.0492
-30.8702
-32.3064
-34.7356
-39.0886
-48.0873
-69.3816
11.8498
-13.5505
-34.9249
11.0464
-7.40682
-23.4827
9.39257
-4.88627
-18.1523
13.1478
2.61365
-3.51783
-9.95116
3.96381
-2.05102
-7.29673
2.77021
-1.67854
-5.43957
1.44662
-1.53971
-3.71249
-6.67094
1.52256
-1.52222
-4.0901
0.859244
-1.31265
-3.19148
0.388498
-1.2383
-2.71243
0.560232
-0.577141
-1.21993
-1.83991
-0.667697
-1.19905
-1.62508
-0.939541
-1.2603
-1.49778
-1.18472
-1.34279
-1.43919
-1.53182
-1.36868
-1.43502
-1.46411
-1.5082
-1.51048
-1.50105
-1.5868
-1.57365
-1.57061
-1.5694
-29.6924
-30.0741
-30.9048
-32.3633
-34.8497
-39.4004
-49.5977
-87.3223
29.5248
-13.0108
-45.7045
22.0213
-7.13569
-31.3536
17.3764
-4.79587
-25.3244
20.4975
3.18692
-3.66997
-13.3153
7.34631
-1.9666
-9.74149
5.26494
-1.60423
-7.1196
3.17727
-1.42036
-3.83906
-8.56814
3.41157
-1.46439
-5.28556
2.07998
-1.28097
-4.06377
1.2762
-1.2244
-3.47068
1.33987
-0.514798
-1.2301
-2.13023
-0.372986
-1.1879
-1.79684
-0.761576
-1.25159
-1.57955
-1.09836
-1.33575
-1.44083
-1.57248
-1.32693
-1.43102
-1.45805
-1.51302
-1.50952
-1.48449
-1.60365
-1.57513
-1.57113
-1.56948
)
;

boundaryField
{
    left
    {
        type            calculated;
        value           nonuniform List<scalar> 
32
(
-20.1581
-20.2364
-20.3852
-20.5961
-20.8619
-21.1759
-21.5322
-21.9248
-22.3483
-22.7971
-23.2657
-23.7485
-24.2398
-24.7339
-25.2254
-25.7086
-26.1782
-26.6293
-27.0575
-27.4586
-27.8295
-28.1676
-28.471
-28.7388
-28.9707
-29.1671
-29.3292
-29.4585
-29.557
-29.6272
-29.6714
-29.6924
)
;
    }
    right
    {
        type            calculated;
        value           nonuniform List<scalar> 
32
(
-1.62931
-1.62834
-1.62651
-1.62399
-1.62092
-1.61743
-1.61365
-1.60969
-1.60566
-1.60164
-1.59771
-1.59393
-1.59034
-1.58699
-1.58392
-1.58114
-1.57867
-1.5765
-1.57465
-1.5731
-1.57183
-1.57083
-1.57005
-1.56949
-1.56909
-1.56884
-1.5687
-1.56866
-1.56873
-1.56895
-1.5694
-1.56948
)
;
    }
    interface
    {
        type            calculated;
        value           nonuniform List<scalar> 
64
(
-29.6974
-30.0801
-30.9131
-32.377
-34.8774
-39.4798
-50.0879
-97.8012
39.9369
-12.8324
-52.0934
28.4598
-7.04921
-36.0142
22.0652
-4.76899
-29.57
24.788
3.37597
-3.72894
-15.2971
9.33205
-1.93988
-11.1907
6.72662
-1.58082
-8.11743
4.18792
-1.37985
-3.88258
-9.68088
4.52209
-1.44562
-5.9947
2.79554
-1.27093
-4.58072
1.79705
-1.22015
-3.92
1.79467
-0.494281
-1.23436
-2.30167
-0.200347
-1.18427
-1.89907
-0.657603
-1.24872
-1.62844
-1.04808
-1.33333
-1.44137
-1.59639
-1.30249
-1.42959
-1.45462
-1.51586
-1.50906
-1.47462
-1.61332
-1.57544
-1.57114
-1.56926
)
;
    }
    bottom
    {
        type            calculated;
        value           nonuniform List<scalar> 
64
(
-20.1377
-20.0411
-19.849
-19.5637
-19.1887
-18.7292
-18.1919
-17.5852
-16.919
-16.2045
-15.4535
-14.6782
-13.8905
-13.1014
-12.321
-11.558
-10.8196
-10.1114
-9.43763
-8.80105
-8.2032
-7.64455
-7.12469
-6.64255
-6.19657
-5.78483
-5.40524
-5.05558
-4.73366
-4.43736
-4.16468
-3.91378
-3.68301
-3.47088
-3.2761
-3.09749
-2.93404
-2.78479
-2.64889
-2.52553
-2.41392
-2.31332
-2.22299
-2.14219
-2.07021
-2.00635
-1.94993
-1.90028
-1.85679
-1.81886
-1.78592
-1.75747
-1.73303
-1.71215
-1.69443
-1.67951
-1.66706
-1.65681
-1.64848
-1.64188
-1.63681
-1.63313
-1.63074
-1.62957
)
;
    }
    defaultFaces
    {
        type            empty;
    }
}


// ************************************************************************* //
