/*--------------------------------*- C++ -*----------------------------------*\
| =========                 |                                                 |
| \\      /  F ield         | OpenFOAM: The Open Source CFD Toolbox           |
|  \\    /   O peration     | Version:  5.x                                   |
|   \\  /    A nd           | Web:      www.OpenFOAM.org                      |
|    \\/     M anipulation  |                                                 |
\*---------------------------------------------------------------------------*/
FoamFile
{
    version     2.0;
    format      ascii;
    class       volScalarField;
    location    "9.2";
    object      gradTx;
}
// * * * * * * * * * * * * * * * * * * * * * * * * * * * * * * * * * * * * * //

dimensions      [0 -1 0 1 0 0 0];

internalField   nonuniform List<scalar> 
2048
(
0.0222009
0.0663558
0.109747
0.151798
0.191851
0.229176
0.263013
0.292634
0.317415
0.336906
0.350877
0.359334
0.362507
0.360816
0.354822
0.345175
0.332571
0.317706
0.301243
0.28379
0.265876
0.247947
0.230355
0.213371
0.197187
0.181925
0.167653
0.154392
0.142126
0.130807
0.12037
0.110735
0.101822
0.0935478
0.0858409
0.0786383
0.0718891
0.065554
0.0596039
0.0540188
0.0487854
0.0438953
0.0393427
0.0351224
0.0312283
0.0276526
0.0243847
0.0214121
0.01872
0.0162922
0.0141116
0.0121604
0.0104206
0.0088742
0.00750341
0.00629078
0.00521917
0.0042718
0.00343212
0.00268365
0.00200994
0.00139435
0.000820178
0.000270676
0.065836
0.196797
0.325552
0.450409
0.569417
0.680389
0.781024
0.869107
0.942739
1.00055
1.04185
1.06666
1.07569
1.07023
1.05197
1.02288
0.98504
0.940544
0.891374
0.839339
0.786015
0.732716
0.680489
0.630122
0.582173
0.536999
0.494791
0.455603
0.419377
0.385971
0.35518
0.326768
0.300483
0.276084
0.253352
0.232101
0.212181
0.193477
0.175904
0.159403
0.143939
0.129487
0.116033
0.103562
0.0920564
0.0814941
0.071844
0.0630682
0.0551229
0.04796
0.0415283
0.0357749
0.0306464
0.0260895
0.0220515
0.0184807
0.0153267
0.0125397
0.0100709
0.00787188
0.00589391
0.00408779
0.00240374
0.000793
0.108101
0.323202
0.534866
0.740385
0.93655
1.11969
1.28587
1.4313
1.55268
1.64766
1.71507
1.75498
1.76865
1.75829
1.72682
1.67755
1.61401
1.53968
1.45786
1.37157
1.28339
1.19548
1.10953
1.02682
0.948223
0.874301
0.805339
0.741401
0.682371
0.627997
0.577924
0.531744
0.48903
0.449376
0.412417
0.377847
0.34542
0.314951
0.286306
0.259397
0.234166
0.210583
0.188627
0.168278
0.149512
0.132292
0.116567
0.102275
0.0893431
0.0776908
0.0672337
0.0578847
0.049556
0.04216
0.0356105
0.029823
0.0247149
0.0202056
0.0162157
0.0126662
0.00947818
0.00657102
0.00386173
0.00127299
0.149278
0.446455
0.739278
1.02415
1.29664
1.5515
1.78301
1.98554
2.15421
2.28555
2.37786
2.43135
2.44792
2.43088
2.38446
2.31348
2.22294
2.11779
2.00268
1.88182
1.75882
1.63664
1.51757
1.40332
1.29503
1.19342
1.09883
1.01131
0.930646
0.856464
0.788236
0.725359
0.667218
0.613227
0.562876
0.515737
0.471479
0.429852
0.390683
0.353857
0.319311
0.287009
0.256935
0.229072
0.203388
0.179836
0.158346
0.138829
0.121183
0.105296
0.0910497
0.0783231
0.0669946
0.0569433
0.0480504
0.0402
0.0332792
0.0271778
0.0217876
0.0170012
0.0127111
0.00880725
0.00517232
0.00170338
0.189524
0.567073
0.939779
1.30334
1.65212
1.97919
2.27673
2.53694
2.75304
2.92022
3.03623
3.10148
3.11875
3.09262
3.02888
2.93396
2.81447
2.67691
2.52731
2.37112
2.21294
2.05653
1.90473
1.75958
1.62245
1.49415
1.37502
1.26506
1.16397
1.07118
0.985966
0.907514
0.834988
0.767613
0.704723
0.645778
0.590363
0.538177
0.489014
0.442748
0.399313
0.358686
0.320861
0.28583
0.253562
0.223999
0.19705
0.172602
0.15052
0.130658
0.112865
0.096985
0.0828641
0.0703486
0.059288
0.0495363
0.0409515
0.0333959
0.0267345
0.0208332
0.0155578
0.010771
0.00632034
0.00207921
0.228877
0.685216
1.1368
1.57886
2.00463
2.40525
2.77046
3.08975
3.35398
3.55674
3.69517
3.77007
3.78534
3.74718
3.66315
3.54151
3.3906
3.21853
3.03282
2.84016
2.64619
2.4554
2.2711
2.09563
1.93045
1.77641
1.63383
1.5026
1.38228
1.27211
1.17114
1.07828
0.992444
0.912656
0.838088
0.768092
0.702183
0.640018
0.581372
0.526116
0.474196
0.425611
0.380379
0.33851
0.29998
0.26472
0.232619
0.203533
0.177292
0.153717
0.132621
0.113815
0.0971128
0.0823276
0.0692786
0.0577904
0.047694
0.0388259
0.0310264
0.0241366
0.0179975
0.0124468
0.00729632
0.00239737
0.267258
0.800707
1.33024
1.85096
2.35501
2.83141
3.26687
3.64751
3.96115
4.19943
4.35888
4.44094
4.45105
4.39737
4.28959
4.13797
3.95273
3.74368
3.51989
3.28937
3.05882
2.83338
2.61679
2.41153
2.21909
2.04028
1.87531
1.72399
1.58567
1.45941
1.34393
1.23786
1.13982
1.0486
0.963206
0.882899
0.807136
0.735548
0.667902
0.604077
0.544044
0.487838
0.435518
0.387123
0.342641
0.301993
0.265042
0.231608
0.201486
0.174458
0.150303
0.128799
0.109726
0.0928662
0.0780083
0.0649489
0.0534931
0.0434542
0.0346501
0.0268996
0.0200201
0.0138269
0.00809546
0.00265618
0.304473
0.913041
1.51949
2.11922
2.70344
3.25874
3.76809
4.21327
4.57822
4.85214
5.031
5.11728
5.11848
5.04529
4.90983
4.7246
4.50179
4.253
3.98891
3.71897
3.45092
3.19056
2.94189
2.70741
2.48853
2.2859
2.09965
1.92939
1.77435
1.63329
1.50462
1.38658
1.27745
1.17577
1.0804
0.99049
0.905482
0.824996
0.748802
0.676798
0.60899
0.545468
0.48635
0.431722
0.381585
0.335851
0.294348
0.256856
0.223128
0.192906
0.165933
0.141955
0.120719
0.101977
0.0854881
0.0710201
0.0583546
0.047284
0.0376067
0.0291215
0.0216243
0.01491
0.00871666
0.00285518
0.340227
1.0214
1.70343
2.38261
3.04941
3.6877
4.27577
4.78977
5.20857
5.51836
5.71468
5.80166
5.78964
5.6924
5.52496
5.30219
5.03834
4.7468
4.44001
4.12894
3.82246
3.52695
3.2465
2.98345
2.73899
2.51355
2.30709
2.11909
1.9486
1.79409
1.65358
1.52485
1.40578
1.29461
1.19005
1.09121
0.997532
0.908638
0.824315
0.744486
0.669204
0.598633
0.532978
0.472387
0.416884
0.36636
0.320602
0.279339
0.242275
0.209112
0.179558
0.153325
0.13013
0.109696
0.0917486
0.0760301
0.0622994
0.0503311
0.0399075
0.0308101
0.0228151
0.0156992
0.0091617
0.00299485
0.374124
1.12467
1.88049
2.63949
3.3918
4.1182
4.79121
5.37956
5.85543
6.20132
6.41267
6.49616
6.46591
6.33962
6.13555
5.87114
5.56262
5.22518
4.87311
4.51913
4.17333
3.84254
3.53074
3.2399
2.9708
2.72358
2.49799
2.29343
2.10876
1.94219
1.79127
1.65318
1.5253
1.40557
1.29259
1.18545
1.08362
0.986777
0.894712
0.807379
0.724884
0.64749
0.575522
0.509219
0.448629
0.39361
0.343893
0.299143
0.259011
0.223154
0.191246
0.16297
0.138016
0.116073
0.0968357
0.0800186
0.0653604
0.0526215
0.041572
0.0319798
0.0236026
0.0162014
0.00943454
0.00307643
0.405683
1.22149
2.04862
2.88761
3.72878
4.54963
5.31542
5.98515
6.52208
6.90417
7.12743
7.20234
7.14812
6.98729
6.74177
6.43152
6.07466
5.68806
5.28797
4.88923
4.5033
4.13731
3.7948
3.47711
3.18439
2.91641
2.67277
2.45278
2.25522
2.07804
1.91819
1.77212
1.63657
1.50919
1.38848
1.2736
1.16411
1.05973
0.960285
0.865736
0.776247
0.692206
0.614114
0.542332
0.476929
0.417712
0.364332
0.316378
0.273436
0.235123
0.201082
0.170968
0.144446
0.121172
0.100807
0.0830358
0.067579
0.0541881
0.0426256
0.0326493
0.0240005
0.0164262
0.00954089
0.00310177
0.434354
1.31024
2.20538
3.12414
4.05791
4.9808
5.8492
6.60916
7.21194
7.63
7.86109
7.92132
7.83655
7.63527
7.34336
6.98316
6.57437
6.13526
5.68423
5.2388
4.8121
4.41125
4.03893
3.69549
3.38028
3.09259
2.83191
2.59757
2.38839
2.20208
2.03491
1.8823
1.74023
1.60603
1.47822
1.35608
1.23936
1.12784
1.02134
0.919834
0.823525
0.73296
0.648889
0.571844
0.501903
0.438789
0.382046
0.331167
0.285669
0.245128
0.209162
0.177405
0.149499
0.125067
0.103729
0.0851397
0.0690035
0.0550691
0.0430975
0.0328403
0.0240246
0.0163849
0.00948773
0.00307318
0.459538
1.38916
2.34799
3.34568
4.37601
5.40997
6.39316
7.25449
7.92877
8.3819
8.61551
8.65369
8.53091
8.28295
7.93977
7.5257
7.0616
6.56659
6.06144
5.56731
5.0994
4.66439
4.26344
3.89559
3.55909
3.2527
2.97594
2.72827
2.50866
2.31478
2.14203
1.9844
1.83692
1.69667
1.56227
1.43329
1.30971
1.19141
1.07818
0.969963
0.866963
0.769928
0.679974
0.597872
0.523679
0.456978
0.397177
0.343648
0.295836
0.253284
0.21559
0.182372
0.153258
0.127836
0.105676
0.0863943
0.0696863
0.0553059
0.0430194
0.0325766
0.0236924
0.0160904
0.00928318
0.00299338
0.480616
1.45638
2.47337
3.54829
4.67917
5.83473
6.94781
7.92448
8.67679
9.16299
9.39222
9.39954
9.23031
8.92923
8.53013
8.05867
7.53626
6.98191
6.41904
5.87402
5.36483
4.89682
4.46878
4.07807
3.72157
3.39744
3.10544
2.84531
2.6164
2.41659
2.24018
2.07917
1.92733
1.78169
1.64112
1.50559
1.3755
1.25077
1.13112
1.01643
0.90682
0.80328
0.707484
0.620528
0.542387
0.472424
0.409875
0.353971
0.304074
0.259714
0.220473
0.185964
0.155811
0.129564
0.106726
0.0868674
0.0696823
0.0549416
0.0424242
0.0318824
0.0230222
0.0155567
0.00893629
0.0028655
0.496982
1.51003
2.57828
3.72758
4.96269
6.25189
7.51347
8.62319
9.46092
9.97636
10.1923
10.1584
9.93321
9.57259
9.11339
8.5815
7.99842
7.38128
6.75637
6.15806
5.60802
5.10875
4.65548
4.24373
3.86857
3.52754
3.22105
2.94915
2.7119
2.50789
2.33006
2.16743
2.01219
1.86169
1.71522
1.57332
1.43703
1.30623
1.18047
1.05955
0.943367
0.833177
0.731509
0.639918
0.558168
0.48528
0.420303
0.362293
0.310524
0.26454
0.223921
0.188275
0.157244
0.130337
0.106961
0.0866298
0.0690478
0.0540195
0.041345
0.030782
0.0220321
0.0147985
0.00845718
0.00269303
0.508075
1.54829
2.65944
3.87873
5.22104
6.65733
8.09032
9.35566
10.287
10.825
11.0166
10.9294
10.6374
10.2111
9.68834
9.09358
8.44843
7.76503
7.07267
6.41826
5.82855
5.30054
4.8242
4.39349
4.00108
3.64378
3.32343
3.04027
2.79537
2.58902
2.41241
2.25009
2.09223
1.93724
1.78501
1.63677
1.49458
1.35808
1.22652
1.09968
0.976903
0.859754
0.752104
0.656137
0.571167
0.495707
0.42863
0.368779
0.315326
0.267891
0.226045
0.189396
0.157641
0.130243
0.106468
0.0857536
0.0678383
0.0525826
0.0398145
0.0292987
0.0207396
0.0138312
0.00785714
0.00248002
0.513419
1.56956
2.71367
3.99665
5.44777
7.04574
8.6782
10.1283
11.162
11.7114
11.865
11.7109
11.3398
10.8426
10.2537
9.59415
8.88703
8.13392
7.36694
6.6531
6.02611
5.47277
4.97568
4.52843
4.12019
3.74694
3.41328
3.11912
2.86686
2.66016
2.48808
2.32817
2.16814
2.0089
1.85088
1.69613
1.54837
1.4066
1.26953
1.13717
1.00776
0.883121
0.769276
0.669273
0.581545
0.503869
0.435035
0.373602
0.31862
0.269889
0.226955
0.189413
0.157081
0.129371
0.105337
0.0843116
0.0661078
0.0506723
0.0378646
0.0274545
0.019161
0.0126707
0.00714899
0.00223116
0.512657
1.57254
2.73807
4.07615
5.63557
7.41032
9.27644
10.9495
12.0944
12.6373
12.7373
12.5011
12.0365
11.4646
10.8083
10.0822
9.31555
8.48943
7.63782
6.86048
6.20045
5.62635
5.11068
4.64975
4.22719
3.83777
3.4914
3.18624
2.92622
2.72134
2.55804
2.40286
2.24057
2.07719
1.91323
1.75153
1.59864
1.45207
1.30974
1.17245
1.03632
0.903336
0.782964
0.67941
0.589487
0.509929
0.439699
0.37694
0.320538
0.270656
0.226761
0.188402
0.155632
0.127811
0.103663
0.0823756
0.0639065
0.0483277
0.0355262
0.0252691
0.0173109
0.0113341
0.00634739
0.001952
0.505578
1.55632
2.73022
4.11214
5.77624
7.74243
9.88344
11.8303
13.095
13.6028
13.6321
13.298
12.7222
12.0746
11.3513
10.5563
9.73607
8.834
7.88343
7.03759
6.35164
5.76264
5.22988
4.75882
4.32351
3.91685
3.55864
3.24227
2.97301
2.77234
2.62347
2.47557
2.31005
2.14259
1.97244
1.80291
1.64557
1.49478
1.34729
1.20598
1.06308
0.920392
0.793015
0.686643
0.595211
0.51404
0.442812
0.378987
0.321197
0.270311
0.225575
0.186429
0.153354
0.125658
0.101547
0.0800158
0.0612795
0.0455856
0.0328302
0.0227599
0.0152011
0.00983902
0.00546938
0.00164925
0.492146
1.52049
2.68832
4.09987
5.86083
8.03108
10.496
12.7854
14.1769
14.6052
14.548
14.1001
13.3897
12.6704
11.8824
11.0139
10.1517
9.17152
8.10098
7.18051
6.48018
5.88368
5.33366
4.85721
4.41088
3.98445
3.61603
3.28806
3.00641
2.81253
2.68589
2.54802
2.3768
2.20559
2.02896
1.85003
1.68938
1.53508
1.38218
1.23831
1.08862
0.934177
0.799157
0.691092
0.598992
0.516332
0.444569
0.379947
0.32069
0.268966
0.223517
0.183542
0.150287
0.123006
0.0990984
0.0772982
0.0582645
0.0424801
0.029808
0.0199406
0.0128403
0.008205
0.00453475
0.00133089
0.472507
1.46517
2.61142
4.03527
5.87985
8.26252
11.1083
13.8345
15.3572
15.6371
15.4828
14.9068
14.0293
13.2506
12.4025
11.4504
10.5671
9.50794
8.28633
7.2839
6.58741
5.99239
5.42178
4.94675
4.49143
4.04033
3.6648
3.32485
3.02508
2.84081
2.74727
2.62234
2.44064
2.26666
2.08337
1.89232
1.73031
1.57341
1.41419
1.2701
1.11377
0.944429
0.800958
0.692935
0.601185
0.516878
0.445174
0.380056
0.31907
0.266734
0.220722
0.17977
0.146452
0.119962
0.0964408
0.0742824
0.0548899
0.0390429
0.0264935
0.0168208
0.0102322
0.00645392
0.00356657
0.00100637
0.446989
1.39107
2.49952
3.9153
5.82367
8.41979
11.7104
15.0041
16.6578
16.684
16.4351
15.7199
14.6274
13.815
12.9142
11.8584
10.9885
9.85211
8.43326
7.34047
6.67592
6.09298
5.49284
5.02964
4.56787
4.08332
3.70652
3.35447
3.02697
2.85531
2.81031
2.70127
2.50061
2.32635
2.13646
1.92876
1.76875
1.61039
1.4427
1.30221
1.13963
0.950661
0.797782
0.692449
0.602258
0.515661
0.444846
0.379589
0.316329
0.26373
0.217349
0.175111
0.141842
0.116641
0.093713
0.0710173
0.0511721
0.0353033
0.022926
0.0134041
0.00737445
0.00461157
0.00259148
0.000686498
0.416093
1.29947
2.35368
3.73825
5.68302
8.48233
12.2859
16.3299
18.1072
17.7198
17.4047
16.5451
15.1638
14.3659
13.4231
12.2249
11.4253
10.2169
8.53254
7.34041
6.75023
6.19134
5.54347
5.10874
4.64384
4.1108
3.74328
3.37969
3.00908
2.85315
2.8787
2.78833
2.55463
2.3854
2.18949
1.95758
1.80531
1.64693
1.46654
1.33571
1.16768
0.952064
0.788737
0.690073
0.602834
0.512503
0.443837
0.378889
0.312364
0.260076
0.213599
0.169526
0.136414
0.113179
0.0910771
0.0675362
0.047113
0.0312895
0.0191533
0.00968693
0.00425598
0.00270976
0.00163986
0.000383205
0.380466
1.19216
2.17606
3.50415
5.44974
8.426
12.8083
17.8597
19.7436
18.702
18.3949
17.3946
15.6094
14.9094
13.9394
12.5294
11.8902
10.6209
8.57057
7.27075
6.81769
6.29569
5.56724
5.18786
4.72438
4.11794
3.77798
3.40463
2.96714
2.83011
2.95749
2.88815
2.59884
2.44497
2.24437
1.97593
1.84098
1.68442
1.48361
1.37205
1.20001
0.947366
0.772615
0.686481
0.603746
0.506979
0.44245
0.378401
0.306929
0.255915
0.209731
0.162922
0.130085
0.109736
0.0887245
0.0638487
0.0426983
0.0270285
0.0152374
0.00565558
0.000854337
0.000789418
0.000745681
0.000108961
0.340869
1.07136
1.96985
3.21496
5.11772
8.22346
13.2372
19.6576
21.6177
19.5636
19.415
18.2899
15.9207
15.4578
14.4795
12.7391
12.4014
11.0897
8.52759
7.11461
6.88948
6.4173
5.55307
5.27241
4.8165
4.0966
3.8147
3.43525
2.89528
2.78012
3.05365
3.00688
2.62679
2.50688
2.30401
1.97936
1.87738
1.72494
1.4905
1.41322
1.23944
0.934645
0.747834
0.682688
0.606106
0.498289
0.44108
0.378718
0.299571
0.251433
0.206097
0.155134
0.122713
0.106515
0.0868847
0.0599305
0.0378957
0.0225473
0.0112605
0.00128312
-0.00286809
-0.00109524
-5.40328e-05
-0.000124035
0.298138
0.939622
1.73917
2.8748
4.68393
7.84527
13.5114
21.808
23.7979
20.2033
20.4849
19.2663
16.0341
16.0319
15.0697
12.8039
12.9845
11.6589
8.37539
6.85045
6.98202
6.5715
5.48309
5.37022
4.93013
4.03384
3.85924
3.48005
2.78549
2.69474
3.17657
3.15263
2.62836
2.57411
2.37282
1.96112
1.91708
1.77162
1.48189
1.46192
1.28982
0.911076
0.712378
0.680167
0.611387
0.485084
0.440278
0.380641
0.289538
0.246883
0.203161
0.145897
0.114099
0.103766
0.0858345
0.0557099
0.0326552
0.0178724
0.00733314
-0.00347491
-0.00696855
-0.00287099
-0.0007205
-0.000304926
0.253138
0.799692
1.4889
2.48994
4.14957
7.26214
13.541
24.422
26.3766
20.4722
21.6407
20.3781
15.857
16.6659
15.7494
12.6496
13.6752
12.3763
8.07436
6.45139
7.11843
6.7789
5.32993
5.49268
5.07911
3.91002
3.91993
3.55078
2.62711
2.56246
3.33884
3.33626
2.5883
2.6514
2.45723
1.91116
1.96402
1.82901
1.4498
1.52195
1.35625
0.872624
0.663759
0.680991
0.621527
0.465249
0.440833
0.385261
0.275661
0.242635
0.201548
0.134814
0.103965
0.101809
0.0859088
0.0510507
0.0269112
0.0130294
0.00360445
-0.0086861
-0.0115294
-0.00443816
-0.00121533
-0.000425377
0.206727
0.654361
1.2244
2.06864
3.52114
6.44852
13.1972
27.6434
29.4779
20.1575
22.9426
21.7047
15.2567
17.4116
16.5759
12.1686
14.5236
13.3051
7.56991
5.88464
7.33027
7.06692
5.05315
5.65638
5.28267
3.69629
4.00862
3.66324
2.40622
2.36798
3.55699
3.57211
2.48442
2.74612
2.56639
1.81497
2.02411
1.90364
1.38262
1.59861
1.44549
0.813641
0.598991
0.68798
0.639055
0.435616
0.443892
0.394045
0.256196
0.239233
0.202077
0.121316
0.091958
0.101049
0.0875128
0.04573
0.020588
0.00803959
0.00027448
-0.0144481
-0.0166643
-0.00566128
-0.00150392
-0.000480722
0.159719
0.506342
0.951218
1.62078
2.81117
5.38795
12.2994
31.6563
33.2683
18.9617
24.4849
23.3584
14.0466
18.3458
17.6303
11.2086
15.5991
14.5273
6.7881
5.11119
7.65919
7.47175
4.595
5.88515
5.56698
3.35154
4.14205
3.83818
2.10488
2.09127
3.85238
3.87919
2.28531
2.86934
2.71305
1.65196
2.10594
2.00462
1.26388
1.69921
1.5662
0.726393
0.514613
0.704861
0.667243
0.391619
0.451125
0.408951
0.228642
0.237481
0.205803
0.104609
0.0776357
0.101996
0.0911346
0.0394126
0.0136098
0.00291548
-0.00239104
-0.0208973
-0.0225253
-0.00635728
-0.00156026
-0.000470769
0.112849
0.358155
0.674812
1.15727
2.03852
4.0807
10.5995
36.6934
37.9691
16.4774
26.4093
25.4932
11.9692
19.5781
19.0243
9.55962
16.9969
16.1467
5.63062
4.08595
8.15866
8.0407
3.87517
6.21265
5.96712
2.81863
4.34364
4.10211
1.70045
1.70667
4.25211
4.28241
1.94766
3.03723
2.91447
1.39364
2.22175
2.14442
1.07082
1.83385
1.72942
0.600497
0.406749
0.73641
0.710292
0.326882
0.464923
0.432542
0.189498
0.238553
0.214063
0.083612
0.0604712
0.105283
0.0973598
0.0316191
0.00591507
-0.00234837
-0.00404319
-0.0282185
-0.029311
-0.00628143
-0.00137354
-0.000399931
0.0667625
0.212035
0.400257
0.689379
1.2279
2.55385
7.76373
43.0445
43.8719
12.1592
28.9202
28.3141
8.67624
21.2613
20.9083
6.93783
18.8459
18.2929
3.96913
2.75825
8.89536
8.835
2.78479
6.68552
6.52923
2.0201
4.64562
4.48804
1.16486
1.18191
4.78986
4.81421
1.41307
3.27273
3.19352
1.00139
2.38847
2.33969
0.772636
2.01623
1.94884
0.422285
0.271245
0.788574
0.773547
0.232728
0.488658
0.468125
0.133999
0.244129
0.22851
0.0568961
0.0398572
0.111687
0.106886
0.0216896
-0.00252153
-0.00778826
-0.00422943
-0.0366577
-0.0372742
-0.00511064
-0.000956505
-0.000276199
0.0219942
0.0698717
0.132013
0.227844
0.408224
0.87421
3.35198
51.0656
51.3561
5.28936
32.3032
32.0875
3.70559
23.6022
23.4797
2.96769
21.3186
21.1238
1.63899
1.07322
9.95021
9.93319
1.17953
7.36706
7.31284
0.853149
5.09174
5.03605
0.463845
0.477095
5.50667
5.51641
0.604444
3.60754
3.57981
0.423944
2.62907
2.61226
0.328583
2.26475
2.24114
0.174091
0.103878
0.868551
0.863758
0.0976326
0.526986
0.519877
0.055798
0.256571
0.251142
0.0226041
0.0151195
0.122143
0.120538
0.00874345
-0.0116607
-0.0134899
-0.00237045
-0.0465345
-0.0467317
-0.00242428
-0.000355602
-0.00010837
)
;

boundaryField
{
    left
    {
        type            calculated;
        value           uniform 0;
    }
    right
    {
        type            calculated;
        value           uniform 0;
    }
    interface
    {
        type            calculated;
        value           nonuniform List<scalar> 
64
(
0.0219942
0.0698717
0.132013
0.227844
0.408224
0.87421
3.35198
51.0656
51.3561
5.28936
32.3032
32.0875
3.70559
23.6022
23.4797
2.96769
21.3186
21.1238
1.63899
1.07322
9.95021
9.93319
1.17953
7.36706
7.31284
0.853149
5.09174
5.03605
0.463845
0.477095
5.50667
5.51641
0.604444
3.60754
3.57981
0.423944
2.62907
2.61226
0.328583
2.26475
2.24114
0.174091
0.103878
0.868551
0.863758
0.0976326
0.526986
0.519877
0.055798
0.256571
0.251142
0.0226041
0.0151195
0.122143
0.120538
0.00874345
-0.0116607
-0.0134899
-0.00237045
-0.0465345
-0.0467317
-0.00242428
-0.000355602
-0.00010837
)
;
    }
    bottom
    {
        type            calculated;
        value           nonuniform List<scalar> 
64
(
0.0222009
0.0663558
0.109747
0.151798
0.191851
0.229176
0.263013
0.292634
0.317415
0.336906
0.350877
0.359334
0.362507
0.360816
0.354822
0.345175
0.332571
0.317706
0.301243
0.28379
0.265876
0.247947
0.230355
0.213371
0.197187
0.181925
0.167653
0.154392
0.142126
0.130807
0.12037
0.110735
0.101822
0.0935478
0.0858409
0.0786383
0.0718891
0.065554
0.0596039
0.0540188
0.0487854
0.0438953
0.0393427
0.0351224
0.0312283
0.0276526
0.0243847
0.0214121
0.01872
0.0162922
0.0141116
0.0121604
0.0104206
0.0088742
0.00750341
0.00629078
0.00521917
0.0042718
0.00343212
0.00268365
0.00200994
0.00139435
0.000820178
0.000270676
)
;
    }
    defaultFaces
    {
        type            empty;
    }
}


// ************************************************************************* //
