/*--------------------------------*- C++ -*----------------------------------*\
| =========                 |                                                 |
| \\      /  F ield         | OpenFOAM: The Open Source CFD Toolbox           |
|  \\    /   O peration     | Version:  5.x                                   |
|   \\  /    A nd           | Web:      www.OpenFOAM.org                      |
|    \\/     M anipulation  |                                                 |
\*---------------------------------------------------------------------------*/
FoamFile
{
    version     2.0;
    format      ascii;
    class       volScalarField;
    location    "9.2";
    object      T;
}
// * * * * * * * * * * * * * * * * * * * * * * * * * * * * * * * * * * * * * //

dimensions      [0 0 0 1 0 0 0];

internalField   nonuniform List<scalar> 
2048
(
9.85533
9.85602
9.8574
9.85945
9.86214
9.86544
9.8693
9.87366
9.87845
9.88358
9.88898
9.89455
9.90021
9.90588
9.91148
9.91696
9.92227
9.92736
9.9322
9.93677
9.94107
9.94508
9.94881
9.95228
9.95548
9.95844
9.96117
9.96368
9.96599
9.96812
9.97008
9.97188
9.97354
9.97506
9.97646
9.97775
9.97892
9.97999
9.98097
9.98186
9.98266
9.98338
9.98403
9.98461
9.98513
9.98559
9.98599
9.98635
9.98666
9.98693
9.98717
9.98737
9.98755
9.9877
9.98783
9.98793
9.98802
9.9881
9.98816
9.9882
9.98824
9.98827
9.98828
9.98829
9.57173
9.57379
9.57788
9.58396
9.59196
9.60176
9.61322
9.62616
9.64038
9.65562
9.67164
9.68818
9.70498
9.7218
9.73842
9.75467
9.77039
9.78545
9.79978
9.81331
9.82601
9.83787
9.84891
9.85914
9.8686
9.87733
9.88538
9.89279
9.89962
9.9059
9.91168
9.917
9.92189
9.92639
9.93052
9.9343
9.93777
9.94093
9.94382
9.94643
9.9488
9.95093
9.95284
9.95456
9.95608
9.95743
9.95863
9.95968
9.9606
9.9614
9.9621
9.9627
9.96321
9.96366
9.96403
9.96434
9.96461
9.96482
9.965
9.96514
9.96524
9.96532
9.96537
9.9654
9.29898
9.30236
9.30908
9.31907
9.33222
9.34834
9.36721
9.38852
9.41194
9.43705
9.46343
9.49064
9.51827
9.54591
9.57322
9.59988
9.62564
9.65031
9.67375
9.69587
9.71662
9.73598
9.75397
9.77065
9.78606
9.80028
9.81338
9.82545
9.83655
9.84677
9.85618
9.86483
9.8728
9.88012
9.88684
9.893
9.89865
9.9038
9.90849
9.91275
9.91659
9.92006
9.92318
9.92596
9.92843
9.93063
9.93257
9.93427
9.93576
9.93706
9.93819
9.93917
9.94
9.94071
9.94132
9.94183
9.94225
9.9426
9.94288
9.94311
9.94328
9.9434
9.94348
9.94352
9.03582
9.04049
9.04978
9.06359
9.08178
9.10411
9.13027
9.15983
9.19231
9.22715
9.26374
9.30146
9.33972
9.37796
9.41568
9.45247
9.48798
9.52194
9.55416
9.58452
9.61297
9.63948
9.66411
9.68691
9.70796
9.72738
9.74526
9.76172
9.77686
9.7908
9.80363
9.81543
9.82629
9.83628
9.84546
9.85387
9.86157
9.86861
9.87501
9.88081
9.88606
9.89079
9.89503
9.89882
9.90219
9.90518
9.90781
9.91013
9.91215
9.91391
9.91544
9.91676
9.91789
9.91885
9.91967
9.92035
9.92092
9.92139
9.92177
9.92207
9.9223
9.92247
9.92258
9.92263
8.78123
8.78715
8.79895
8.81652
8.83968
8.86815
8.90153
8.93929
8.98081
9.02533
9.07206
9.12021
9.16898
9.21767
9.26563
9.31232
9.35731
9.40027
9.44097
9.47925
9.51507
9.54841
9.57933
9.60793
9.63432
9.65863
9.68101
9.7016
9.72054
9.73798
9.75402
9.76879
9.78238
9.79488
9.80637
9.8169
9.82655
9.83535
9.84336
9.85063
9.8572
9.86311
9.86841
9.87314
9.87734
9.88106
9.88434
9.88722
9.88974
9.89192
9.89382
9.89545
9.89685
9.89804
9.89905
9.89989
9.9006
9.90117
9.90164
9.90201
9.90229
9.90249
9.90263
9.90269
8.53434
8.54149
8.55575
8.57701
8.60509
8.63966
8.68025
8.72624
8.77681
8.83105
8.88796
8.94652
9.00577
9.06481
9.12287
9.17929
9.23354
9.28524
9.33412
9.38002
9.42288
9.46271
9.49961
9.53368
9.5651
9.59401
9.62061
9.64507
9.66756
9.68826
9.70732
9.72486
9.74101
9.75588
9.76954
9.78207
9.79354
9.80401
9.81354
9.82218
9.82998
9.837
9.84328
9.84888
9.85386
9.85826
9.86213
9.86553
9.86849
9.87107
9.87329
9.87521
9.87685
9.87825
9.87942
9.88041
9.88123
9.8819
9.88244
9.88287
9.8832
9.88343
9.88359
9.88366
8.29446
8.30281
8.31948
8.34438
8.37733
8.41798
8.46581
8.52007
8.57979
8.64385
8.71103
8.78007
8.8498
8.91916
8.98722
9.05321
9.11653
9.17674
9.23352
9.28673
9.33632
9.38232
9.42486
9.4641
9.50022
9.53344
9.56398
9.59205
9.61785
9.6416
9.66346
9.6836
9.70214
9.71922
9.73491
9.74932
9.7625
9.77454
9.78549
9.79541
9.80437
9.81241
9.81961
9.82602
9.83171
9.83673
9.84115
9.84501
9.84838
9.85131
9.85383
9.85601
9.85786
9.85943
9.86076
9.86187
9.86279
9.86354
9.86415
9.86463
9.86499
9.86525
9.86542
9.86551
8.06104
8.07055
8.08957
8.11804
8.1558
8.20252
8.25763
8.32027
8.3893
8.46334
8.54093
8.62056
8.70084
8.78051
8.85851
8.93395
9.00615
9.07463
9.13906
9.19928
9.25527
9.30712
9.35498
9.39906
9.43959
9.47682
9.51102
9.54244
9.57131
9.59788
9.62235
9.6449
9.66568
9.68482
9.70243
9.71859
9.73338
9.74688
9.75916
9.77028
9.78031
9.78931
9.79736
9.80451
9.81085
9.81644
9.82134
9.82564
9.82937
9.83261
9.8354
9.83779
9.83984
9.84157
9.84302
9.84424
9.84524
9.84606
9.84672
9.84724
9.84763
9.84791
9.8481
9.84818
7.83362
7.84425
7.86553
7.89748
7.93999
7.99277
8.05523
8.12639
8.20491
8.28916
8.37736
8.46774
8.55866
8.64867
8.73655
8.82132
8.90224
8.97877
9.05058
9.11752
9.17961
9.23698
9.28983
9.33843
9.38306
9.42402
9.46161
9.49612
9.52783
9.55701
9.5839
9.60869
9.63155
9.65262
9.672
9.68981
9.7061
9.72098
9.7345
9.74674
9.75776
9.76765
9.77647
9.78431
9.79123
9.79733
9.80268
9.80735
9.81141
9.81492
9.81795
9.82054
9.82274
9.8246
9.82617
9.82747
9.82854
9.82942
9.83012
9.83066
9.83108
9.83138
9.83157
9.83166
7.61184
7.62353
7.64699
7.6823
7.72947
7.78829
7.85816
7.93802
8.02627
8.121
8.22007
8.32139
8.42307
8.52345
8.62118
8.71519
8.80466
8.88902
8.96794
9.04131
9.10917
9.17172
9.22925
9.28206
9.33049
9.3749
9.4156
9.45296
9.48727
9.51886
9.54797
9.57483
9.59963
9.6225
9.64355
9.66289
9.6806
9.69676
9.71144
9.72472
9.73667
9.74737
9.7569
9.76535
9.77281
9.77937
9.78511
9.79012
9.79446
9.79821
9.80144
9.80419
9.80653
9.8085
9.81016
9.81153
9.81266
9.81357
9.8143
9.81487
9.8153
9.81561
9.81581
9.8159
7.39544
7.40812
7.43361
7.47214
7.52385
7.58866
7.66602
7.75477
7.85306
7.95858
8.06881
8.18131
8.29389
8.40469
8.51224
8.61537
8.71323
8.80521
8.89098
8.97046
9.04377
9.11118
9.17306
9.22977
9.28172
9.32928
9.37285
9.41281
9.4495
9.48328
9.51444
9.54323
9.56982
9.59437
9.61698
9.63776
9.65678
9.67414
9.6899
9.70415
9.71695
9.7284
9.73859
9.7476
9.75553
9.7625
9.76859
9.77388
9.77847
9.78243
9.78582
9.78871
9.79116
9.79323
9.79495
9.79638
9.79755
9.79849
9.79924
9.79982
9.80026
9.80057
9.80077
9.80087
7.18421
7.19779
7.22516
7.26671
7.32279
7.39352
7.47844
7.5763
7.68497
7.80168
7.92341
8.04734
8.17095
8.29223
8.40956
8.52171
8.62778
8.72716
8.81951
8.90479
8.98322
9.05517
9.12107
9.18138
9.23655
9.28702
9.3332
9.37551
9.41437
9.45015
9.48319
9.51374
9.54201
9.56812
9.5922
9.61432
9.63457
9.65305
9.66982
9.68497
9.69856
9.7107
9.72147
9.73098
9.73934
9.74666
9.75305
9.7586
9.7634
9.76753
9.77106
9.77407
9.7766
9.77874
9.78051
9.78198
9.78317
9.78414
9.78489
9.78548
9.78592
9.78623
9.78643
9.78653
6.97803
6.99239
7.02144
7.06577
7.12599
7.20252
7.29506
7.4023
7.52176
7.65008
7.78369
7.91931
8.05412
8.1859
8.31296
8.43402
8.54814
8.65469
8.75335
8.84411
8.92732
9.00347
9.07309
9.1367
9.19482
9.24792
9.29647
9.34092
9.38173
9.41932
9.45407
9.48626
9.51608
9.54366
9.5691
9.59248
9.61389
9.63341
9.65112
9.6671
9.68143
9.6942
9.70549
9.71544
9.72418
9.73181
9.73846
9.74422
9.7492
9.75347
9.75711
9.7602
9.76281
9.76499
9.7668
9.76829
9.7695
9.77047
9.77123
9.77182
9.77225
9.77256
9.77275
9.77285
6.7768
6.79182
6.82231
6.86911
6.9332
7.01534
7.11553
7.23246
7.36317
7.50361
7.64952
7.79711
7.94325
8.08556
8.22229
8.35213
8.47412
8.58764
8.69231
8.78823
8.87587
8.95588
9.0289
9.09553
9.15634
9.21183
9.26251
9.30887
9.35142
9.39064
9.42694
9.46064
9.49192
9.52087
9.54759
9.57216
9.59464
9.61514
9.63373
9.65049
9.66549
9.67883
9.6906
9.70094
9.70999
9.71789
9.72475
9.73069
9.73581
9.7402
9.74393
9.74709
9.74974
9.75196
9.75379
9.75529
9.7565
9.75747
9.75822
9.75879
9.75922
9.75951
9.7597
9.75979
6.58049
6.59602
6.62768
6.67659
6.74417
6.83168
6.93954
7.06647
7.20901
7.36213
7.52077
7.68064
7.83823
7.99105
8.13737
8.27584
8.40554
8.52579
8.63621
8.73693
8.82865
8.91218
8.98829
9.05767
9.12091
9.17856
9.23115
9.27922
9.32331
9.36396
9.40168
9.43678
9.46941
9.49966
9.52759
9.55326
9.57675
9.59817
9.61757
9.63506
9.65069
9.66454
9.67672
9.6874
9.69672
9.70484
9.71189
9.71797
9.72321
9.72768
9.73147
9.73468
9.73736
9.73959
9.74143
9.74293
9.74414
9.74509
9.74583
9.74638
9.74679
9.74707
9.74725
9.74733
6.38909
6.40497
6.43748
6.48808
6.55869
6.65124
6.76673
6.90406
7.05909
7.22553
7.39737
7.56979
7.73892
7.90221
8.05801
8.20497
8.34219
8.46899
8.58485
8.69001
8.78542
8.87215
8.95106
9.02291
9.08836
9.14794
9.20222
9.2518
9.29723
9.33915
9.37814
9.41454
9.44845
9.47992
9.50899
9.5357
9.56014
9.58241
9.60258
9.62074
9.63695
9.65127
9.66381
9.67477
9.68432
9.69262
9.69981
9.70601
9.71133
9.71587
9.71971
9.72293
9.72562
9.72786
9.72969
9.73118
9.73237
9.7333
9.73402
9.73455
9.73493
9.7352
9.73536
9.73544
6.20263
6.21868
6.25168
6.30348
6.37658
6.47372
6.59676
6.74492
6.91327
7.09373
7.27925
7.46451
7.64521
7.81888
7.98404
8.13931
8.28386
8.41703
8.53805
8.64725
8.74596
8.83556
8.91698
8.99105
9.05849
9.11981
9.17559
9.22647
9.27306
9.31606
9.35619
9.39381
9.42894
9.46157
9.49172
9.51941
9.54473
9.5678
9.58868
9.60747
9.62422
9.63896
9.65182
9.663
9.67273
9.68117
9.68848
9.69477
9.70015
9.70473
9.70859
9.71182
9.7145
9.71673
9.71855
9.72002
9.72118
9.72208
9.72277
9.72327
9.72362
9.72387
9.72402
9.72409
6.02116
6.03718
6.0703
6.12274
6.19768
6.29885
6.42925
6.58874
6.77142
6.96669
7.16634
7.36473
7.557
7.74087
7.91527
8.07863
8.23034
8.36974
8.49563
8.60843
8.71002
8.80219
8.88584
8.9619
9.03115
9.094
9.15108
9.20311
9.25065
9.29455
9.33569
9.37449
9.41078
9.44451
9.47569
9.50429
9.53043
9.55425
9.57581
9.59518
9.61244
9.62757
9.64067
9.65203
9.66191
9.67046
9.67784
9.6842
9.68962
9.69421
9.69808
9.7013
9.70397
9.70616
9.70796
9.7094
9.71053
9.7114
9.71204
9.71251
9.71283
9.71305
9.71319
9.71325
5.84472
5.86052
5.89336
5.94584
6.02186
6.12635
6.26381
6.4352
6.63351
6.84442
7.0586
7.27043
7.47416
7.66799
7.85149
8.02272
8.18138
8.32697
8.45744
8.57333
8.67736
8.77182
8.85745
8.93525
9.00616
9.07036
9.12856
9.18157
9.22988
9.27448
9.31652
9.35646
9.39388
9.42865
9.46083
9.49029
9.51718
9.54171
9.56389
9.58382
9.60157
9.61704
9.63034
9.64182
9.65179
9.66042
9.66786
9.67426
9.6797
9.68429
9.68815
9.69134
9.69397
9.69614
9.6979
9.69931
9.7004
9.70122
9.70183
9.70225
9.70254
9.70273
9.70284
9.7029
5.67339
5.68877
5.7209
5.77278
5.84903
5.95593
6.1
6.28393
6.49954
6.72696
6.95595
7.18158
7.39658
7.60001
7.79253
7.97134
8.13672
8.28858
8.42333
8.54173
8.64772
8.74424
8.83158
8.91092
8.98337
9.04876
9.10788
9.16176
9.21064
9.25571
9.29853
9.33964
9.37815
9.41392
9.44708
9.47732
9.50489
9.53011
9.55286
9.57331
9.59156
9.60733
9.62075
9.6323
9.64235
9.65102
9.65848
9.66491
9.67036
9.67493
9.67876
9.68192
9.6845
9.68661
9.68834
9.68971
9.69076
9.69153
9.69209
9.69246
9.69271
9.69287
9.69297
9.69301
5.50723
5.52199
5.55301
5.6036
5.67912
5.78734
5.93732
6.13448
6.36965
6.61439
6.85831
7.09823
7.32415
7.53665
7.73823
7.92423
8.09605
8.25445
8.39318
8.51339
8.6208
8.71925
8.80806
8.88868
8.96265
9.02904
9.08891
9.14356
9.19281
9.2381
9.28158
9.32395
9.36353
9.40022
9.43436
9.46533
9.4935
9.5194
9.54267
9.56359
9.58236
9.5984
9.61187
9.62343
9.63353
9.64221
9.64968
9.65612
9.66156
9.6661
9.66989
9.67299
9.67551
9.67757
9.67926
9.68058
9.68158
9.6823
9.6828
9.68313
9.68332
9.68345
9.68353
9.68356
5.34629
5.36026
5.38976
5.43837
5.51212
5.62036
5.77523
5.98631
6.24411
6.50687
6.76549
7.02046
7.25673
7.47757
7.68845
7.88114
8.05902
8.22453
8.3669
8.48807
8.59629
8.69669
8.7867
8.86834
8.94388
9.01109
9.07148
9.12692
9.17631
9.22151
9.26553
9.30933
9.34995
9.38748
9.42265
9.45424
9.48292
9.50951
9.53325
9.5546
9.57394
9.59021
9.60365
9.61514
9.62529
9.63396
9.6414
9.64786
9.65326
9.65775
9.66151
9.66454
9.66698
9.66897
9.67062
9.6719
9.67284
9.6735
9.67394
9.67422
9.67436
9.67445
9.67451
9.67453
5.19063
5.20363
5.23124
5.27718
5.34806
5.45478
5.61313
5.83871
6.12344
6.40456
6.67718
6.94846
7.19422
7.42233
7.64315
7.8418
8.02518
8.19884
8.34446
8.46549
8.57385
8.67643
8.76733
8.84966
8.92698
8.99478
9.05544
9.11176
9.16106
9.20579
9.25022
9.29575
9.33735
9.37559
9.4119
9.44401
9.47307
9.50042
9.52454
9.54625
9.56628
9.58274
9.59603
9.60739
9.61759
9.62623
9.63361
9.6401
9.64545
9.64986
9.65358
9.65654
9.65888
9.6608
9.66241
9.66364
9.66452
9.66512
9.6655
9.66572
9.6658
9.66585
9.66589
9.6659
5.04027
5.05216
5.07753
5.12017
5.18703
5.29047
5.45035
5.69073
6.00846
6.30772
6.5929
6.88256
7.13648
7.37035
7.6024
7.80595
7.99395
8.17752
8.32585
8.44535
8.55306
8.65841
8.7498
8.83238
8.91192
8.98002
9.04061
9.09808
9.147
9.1908
9.23544
9.28323
9.3257
9.36444
9.4021
9.43458
9.46385
9.49211
9.51649
9.53847
9.55936
9.57597
9.58897
9.60011
9.61042
9.61898
9.62626
9.63281
9.63809
9.6424
9.64609
9.64895
9.65118
9.65302
9.65461
9.65579
9.6566
9.65713
9.65745
9.6576
9.65762
9.65763
9.65765
9.65765
4.89524
4.90589
4.92872
4.96745
5.02919
5.12738
5.28617
5.54104
5.90047
6.21659
6.51183
6.82331
7.08339
7.32083
7.56645
7.77332
7.96454
8.16086
8.31109
8.42735
8.53343
8.64265
8.73397
8.81618
8.89873
8.9667
9.02675
9.08591
9.1341
9.17638
9.22098
9.27181
9.31494
9.3539
9.39328
9.4259
9.45514
9.48456
9.50904
9.53114
9.55321
9.56988
9.58241
9.59325
9.60375
9.61219
9.61932
9.62597
9.63115
9.63533
9.63901
9.64177
9.64386
9.64561
9.64719
9.64832
9.64906
9.64951
9.64976
9.64986
9.6498
9.64977
9.64977
9.64977
4.75552
4.76484
4.78488
4.81918
4.87472
4.96556
5.11988
5.38779
5.80138
6.13147
6.43274
6.77163
7.03481
7.27269
7.53581
7.74362
7.93593
8.14939
8.30027
8.41112
8.51435
8.62931
8.71971
8.80065
8.88753
8.95472
9.01358
9.07532
9.12233
9.16237
9.20655
9.26164
9.30506
9.34377
9.38551
9.41792
9.44679
9.47783
9.50215
9.52414
9.54784
9.56445
9.57631
9.58671
9.59757
9.60581
9.61272
9.61957
9.62462
9.62862
9.63233
9.63497
9.63689
9.63854
9.64014
9.64122
9.64188
9.64224
9.64244
9.64247
9.64233
9.64225
9.64224
9.64223
4.62109
4.629
4.64608
4.67553
4.72389
4.8052
4.95083
5.22836
5.71402
6.05263
6.35377
6.7289
6.99059
7.22443
7.5114
7.7166
7.9067
8.14395
8.29346
8.39627
8.49507
8.61872
8.70691
8.78528
8.87855
8.94401
9.00074
9.0665
9.1117
9.1486
9.19178
9.25294
9.29604
9.33382
9.37889
9.41061
9.43862
9.47199
9.49577
9.51729
9.54333
9.55968
9.5706
9.58042
9.59189
9.59984
9.60642
9.61362
9.61846
9.62223
9.62605
9.62853
9.63026
9.63178
9.63344
9.63446
9.63504
9.63531
9.63544
9.63542
9.63517
9.63506
9.63503
9.63502
4.4919
4.49836
4.51234
4.53662
4.57699
4.64665
4.77851
5.05907
5.64236
5.98025
6.27229
6.69721
6.95056
7.17398
7.49467
7.69198
7.87494
8.14584
8.29072
8.3824
8.47462
8.61147
8.69546
8.76938
8.87222
8.93446
8.98773
9.05973
9.10221
9.13493
9.1762
9.24608
9.28783
9.32372
9.37365
9.40392
9.43037
9.46717
9.48986
9.51038
9.53981
9.55555
9.56524
9.57427
9.58674
9.59424
9.60035
9.60811
9.61267
9.61612
9.62014
9.62243
9.62393
9.62531
9.62709
9.62804
9.62852
9.62869
9.62877
9.62869
9.62832
9.62817
9.62814
9.62813
4.36788
4.37287
4.3837
4.4026
4.43435
4.49044
4.60272
4.8748
5.59198
5.91444
6.18454
6.67959
6.91449
7.11854
7.48779
7.66949
7.83806
8.15696
8.29204
8.36909
8.45176
8.60844
8.68526
8.75204
8.86917
8.926
8.9739
9.05544
9.09384
9.12122
9.1592
9.24161
9.28042
9.31302
9.37009
9.39781
9.42171
9.46362
9.48436
9.50311
9.53746
9.55206
9.56016
9.56814
9.58218
9.58899
9.59442
9.60309
9.6072
9.61023
9.61462
9.61666
9.61789
9.61909
9.62108
9.62194
9.62231
9.62236
9.6224
9.62229
9.62175
9.62158
9.62155
9.62154
4.24895
4.25248
4.26014
4.27356
4.29631
4.33727
4.42383
4.6685
5.5705
5.85504
6.08542
6.68033
6.88208
7.05437
7.4939
7.64888
7.79263
8.18003
8.29722
8.35599
8.42491
8.61095
8.67618
8.73204
8.87032
8.91852
8.9584
9.05426
9.0866
9.1074
9.13993
9.24027
9.27375
9.30114
9.36867
9.39222
9.41222
9.46165
9.47923
9.49511
9.53654
9.54915
9.55531
9.56186
9.57832
9.58406
9.58853
9.59859
9.60205
9.60451
9.60951
9.6112
9.61212
9.61309
9.61541
9.61613
9.6164
9.61632
9.61632
9.61619
9.61544
9.61528
9.61524
9.61523
4.135
4.13709
4.14163
4.1496
4.16317
4.18797
4.24298
4.43059
5.58812
5.80158
5.96809
6.70534
6.85291
6.97647
7.51732
7.62986
7.73413
8.21879
8.30579
8.34283
8.39198
8.62081
8.66807
8.70783
8.877
8.91187
8.94013
9.05705
9.08038
9.09345
9.11731
9.24313
9.26776
9.28729
9.37003
9.38709
9.40132
9.46173
9.47444
9.48587
9.53744
9.54677
9.55064
9.55525
9.57528
9.57942
9.58256
9.59469
9.59719
9.59888
9.60481
9.60602
9.60659
9.60727
9.61008
9.61061
9.61076
9.61053
9.61052
9.6104
9.60937
9.60923
9.60921
9.6092
4.02592
4.02661
4.02811
4.03074
4.03523
4.04349
4.06255
4.14824
5.65835
5.75312
5.82364
6.7626
6.82637
6.8784
7.56394
7.61214
7.65668
8.27834
8.3168
8.32956
8.35034
8.64051
8.66075
8.67737
8.89097
8.90589
8.91763
9.06501
9.07501
9.0795
9.08992
9.25159
9.26231
9.27048
9.37504
9.38235
9.38829
9.4645
9.46992
9.47477
9.5407
9.54481
9.54614
9.54805
9.57328
9.57505
9.57633
9.59151
9.59258
9.59326
9.60059
9.60111
9.6013
9.60158
9.60512
9.60535
9.60539
9.60498
9.60497
9.60491
9.60351
9.60345
9.60344
9.60344
)
;

boundaryField
{
    left
    {
        type            zeroGradient;
    }
    right
    {
        type            zeroGradient;
    }
    interface
    {
        type            fixedValue;
        value           nonuniform List<scalar> 
64
(
3.97259
3.97259
3.97259
3.97259
3.97259
3.97259
3.97259
3.97259
5.73007
5.73007
5.73007
6.81371
6.81371
6.81371
7.60357
7.60357
7.60357
8.32286
8.32286
8.32286
8.32286
8.65727
8.65727
8.65727
8.90305
8.90305
8.90305
9.07253
9.07253
9.07253
9.07253
9.25971
9.25971
9.25971
9.38006
9.38006
9.38006
9.46773
9.46773
9.46773
9.54392
9.54392
9.54392
9.54392
9.57292
9.57292
9.57292
9.59033
9.59033
9.59033
9.59871
9.59871
9.59871
9.59871
9.60278
9.60278
9.60278
9.60226
9.60226
9.60226
9.60062
9.60062
9.60062
9.60062
)
;
    }
    bottom
    {
        type            fixedValue;
        value           uniform 10;
    }
    defaultFaces
    {
        type            empty;
    }
}


// ************************************************************************* //
