/*--------------------------------*- C++ -*----------------------------------*\
| =========                 |                                                 |
| \\      /  F ield         | OpenFOAM: The Open Source CFD Toolbox           |
|  \\    /   O peration     | Version:  5.x                                   |
|   \\  /    A nd           | Web:      www.OpenFOAM.org                      |
|    \\/     M anipulation  |                                                 |
\*---------------------------------------------------------------------------*/
FoamFile
{
    version     2.0;
    format      ascii;
    class       volScalarField;
    location    "2.8";
    object      gradTx;
}
// * * * * * * * * * * * * * * * * * * * * * * * * * * * * * * * * * * * * * //

dimensions      [0 -1 0 1 0 0 0];

internalField   nonuniform List<scalar> 
2048
(
0.0199741
0.0596806
0.0986376
0.136284
0.171991
0.205066
0.234795
0.260506
0.281632
0.297778
0.308763
0.314632
0.315643
0.312231
0.304957
0.294462
0.281416
0.266482
0.250282
0.233377
0.216249
0.199298
0.182835
0.167093
0.152234
0.138356
0.125509
0.113702
0.102911
0.0930914
0.0841793
0.0761024
0.0687843
0.0621495
0.0561272
0.0506533
0.0456716
0.0411337
0.0369986
0.0332317
0.0298036
0.0266894
0.0238667
0.0213155
0.0190165
0.016951
0.0151004
0.013446
0.0119696
0.0106527
0.00947738
0.00842604
0.00748151
0.00662727
0.00584759
0.00512782
0.00445461
0.0038162
0.00320262
0.00260579
0.00201959
0.00143964
0.000862959
0.000287571
0.0592499
0.177052
0.292684
0.4045
0.510631
0.608999
0.697447
0.773924
0.836705
0.884588
0.917025
0.934162
0.936793
0.92624
0.904208
0.872626
0.833511
0.788846
0.74049
0.690115
0.639152
0.58878
0.539919
0.493249
0.449238
0.40817
0.370183
0.335296
0.303435
0.274457
0.24817
0.224355
0.202783
0.183227
0.165477
0.149341
0.134653
0.121272
0.109076
0.0979637
0.0878501
0.0786616
0.0703338
0.0628075
0.0560264
0.0499355
0.0444797
0.0396042
0.0352543
0.031376
0.027916
0.0248221
0.0220434
0.0195309
0.017238
0.0151211
0.0131406
0.0112614
0.00945409
0.00769478
0.00596547
0.00425346
0.00255042
0.000850173
0.0973395
0.290934
0.481134
0.665296
0.840341
1.00278
1.14893
1.27526
1.37879
1.45744
1.51028
1.53759
1.54077
1.5221
1.4845
1.43123
1.36568
1.29118
1.21081
1.12734
1.04313
0.960105
0.879748
0.803149
0.731043
0.663869
0.601827
0.544925
0.493022
0.445867
0.40313
0.36444
0.329407
0.297655
0.268832
0.242625
0.218764
0.197016
0.177188
0.159116
0.142664
0.127715
0.114167
0.101926
0.0909
0.0810008
0.0721387
0.0642239
0.0571671
0.0508794
0.0452738
0.0402648
0.035769
0.0317059
0.0279987
0.0245754
0.0213709
0.0183274
0.0153964
0.0125391
0.00972629
0.00693787
0.00416231
0.00138842
0.134519
0.402188
0.665524
0.921005
1.16437
1.39062
1.5944
1.77047
1.9144
2.02311
2.09527
2.13135
2.13348
2.10503
2.05028
1.97392
1.88081
1.77563
1.66274
1.54599
1.42866
1.31337
1.20214
1.09641
0.997136
0.90486
0.819807
0.741949
0.671053
0.606742
0.548533
0.495884
0.44824
0.405066
0.36587
0.330221
0.297746
0.268131
0.241116
0.216483
0.19405
0.173663
0.155188
0.138499
0.123476
0.109996
0.0979382
0.0871785
0.0775938
0.0690621
0.0614636
0.0546805
0.0485981
0.0431048
0.0380943
0.0334667
0.029131
0.0250073
0.0210287
0.0171418
0.0133069
0.00949735
0.0057014
0.00190325
0.170945
0.511324
0.846826
1.17321
1.48505
1.77574
2.03794
2.26439
2.44889
2.5872
2.67753
2.72067
2.71964
2.67916
2.60501
2.50352
2.38108
2.24381
2.09738
1.94675
1.79607
1.64866
1.50699
1.3728
1.2472
1.13077
1.02373
0.925978
0.837159
0.756747
0.684081
0.618434
0.559068
0.505281
0.456439
0.411993
0.371479
0.334507
0.300756
0.269961
0.241905
0.216403
0.193294
0.172429
0.153658
0.136831
0.121795
0.108392
0.0964666
0.0858645
0.076434
0.0680267
0.060497
0.0537031
0.0475089
0.0417864
0.036419
0.0313045
0.0263577
0.0215114
0.0167162
0.0119397
0.00717256
0.0023961
0.20666
0.618515
1.02548
1.42282
1.80397
2.16052
2.48279
2.761
2.98676
3.1544
3.26166
3.3098
3.30303
3.24769
3.15136
3.02213
2.86808
2.69688
2.5155
2.33004
2.14556
1.966
1.79423
1.63218
1.48105
1.34141
1.2134
1.09682
0.991167
0.895736
0.809666
0.732017
0.661845
0.598273
0.540523
0.487934
0.439955
0.396132
0.356092
0.319531
0.286203
0.255902
0.228448
0.203672
0.181405
0.161466
0.143671
0.12783
0.113755
0.10126
0.0901631
0.0802863
0.071454
0.0634946
0.0562417
0.049539
0.0432435
0.0372305
0.0313966
0.0256613
0.0199665
0.0142747
0.00858212
0.00286899
0.241595
0.723614
1.20142
1.67008
2.12198
2.54664
2.93151
3.26366
3.5319
3.72877
3.85157
3.90226
3.88666
3.81309
3.69126
3.53125
3.34292
3.13556
2.91753
2.69611
2.47722
2.26539
2.0638
1.87449
1.69862
1.53671
1.38877
1.25444
1.13306
1.02373
0.925333
0.836702
0.756661
0.684142
0.618223
0.558136
0.503258
0.453078
0.407183
0.365239
0.326977
0.292179
0.260659
0.232234
0.206716
0.183899
0.163565
0.145492
0.129459
0.115249
0.102652
0.0914623
0.0814748
0.0724879
0.0643048
0.0567393
0.0496216
0.0428037
0.0361641
0.0296094
0.0230728
0.0165142
0.00993744
0.00332432
0.275576
0.826163
1.3741
1.91467
2.43928
2.93514
3.38615
3.77528
4.08776
4.31391
4.45059
4.50093
4.47284
4.37717
4.22607
4.03184
3.80627
3.56027
3.30368
3.04499
2.79101
2.54679
2.31569
2.09974
1.89998
1.71676
1.54992
1.39894
1.26297
1.14086
1.03125
0.932681
0.843719
0.763088
0.689725
0.622771
0.56154
0.50548
0.454147
0.407182
0.364306
0.325299
0.289976
0.258153
0.229625
0.204159
0.181504
0.161403
0.143601
0.127853
0.113921
0.101573
0.0905783
0.0807033
0.0717197
0.0634103
0.055577
0.0480481
0.0406833
0.0333766
0.026053
0.0186717
0.0112466
0.00376463
0.308329
0.925408
1.5425
2.15563
2.75545
3.32651
3.8483
4.29848
4.65754
4.91306
5.06166
5.10817
5.06334
4.94115
4.75663
4.52448
4.25844
3.97114
3.67393
3.37658
3.08683
2.81012
2.5499
2.30802
2.08527
1.88173
1.69705
1.53052
1.38109
1.24736
1.12768
1.02024
0.92331
0.835392
0.75529
0.682069
0.615006
0.55352
0.497142
0.445499
0.398307
0.355355
0.316476
0.281493
0.250188
0.222299
0.197538
0.175609
0.156224
0.139108
0.124002
0.11065
0.0987931
0.0881693
0.0785154
0.0695809
0.0611384
0.0529914
0.0449806
0.0369867
0.0289268
0.0207615
0.012518
0.00419248
0.339484
1.02032
1.70515
2.39146
3.06945
3.72072
4.31924
4.8357
5.24432
5.52932
5.68735
5.72585
5.65936
5.50575
5.28332
5.00933
4.6995
4.36812
4.0281
3.69066
3.36447
3.05533
2.76651
2.49951
2.25472
2.0319
1.83045
1.64947
1.48772
1.34357
1.21498
1.09975
0.995801
0.901399
0.815227
0.736306
0.663898
0.597411
0.53636
0.480358
0.429121
0.382464
0.340254
0.302336
0.26848
0.238391
0.211735
0.188174
0.167384
0.149066
0.13294
0.11873
0.106155
0.0949207
0.0847261
0.0752844
0.0663378
0.0576642
0.0490844
0.0404651
0.0317149
0.0227986
0.0137599
0.00461024
0.368592
1.10961
1.86016
2.62007
3.37963
4.11723
4.79997
5.38934
5.85122
6.16562
6.32994
6.35541
6.26159
6.07116
5.80611
5.48629
5.12931
4.75099
4.3659
3.9869
3.62373
3.28235
2.96562
2.67446
2.40868
2.16763
1.95048
1.75614
1.58322
1.42983
1.29355
1.17165
1.06162
0.961501
0.869885
0.785785
0.708483
0.637393
0.572014
0.511946
0.456909
0.406756
0.361418
0.320777
0.284591
0.25252
0.224176
0.199172
0.177149
0.157785
0.140784
0.125858
0.112705
0.100997
0.0903897
0.0805571
0.0712091
0.0620982
0.0530244
0.0438387
0.0344392
0.0247983
0.0149804
0.00501999
0.395136
1.19178
2.00524
2.83881
3.6837
4.51498
5.2913
5.96193
6.48149
6.82491
6.99144
6.99784
6.87022
6.63714
6.32463
5.95503
5.5476
5.11946
4.68692
4.26489
3.86434
3.49115
3.14743
2.83321
2.54758
2.28939
2.05758
1.85094
1.66797
1.50658
1.36385
1.23641
1.12123
1.01612
0.919635
0.830823
0.749039
0.673713
0.60433
0.540468
0.481844
0.428372
0.380081
0.336916
0.298616
0.264779
0.234952
0.208689
0.185594
0.165329
0.147589
0.13208
0.118484
0.106439
0.095547
0.0854368
0.075787
0.0663256
0.0568307
0.0471351
0.037122
0.0267754
0.0161865
0.00542331
0.418551
1.26517
2.13777
3.04452
3.97871
4.91236
5.79385
6.55625
7.13872
7.51012
7.67359
7.65368
7.48491
7.203
6.8382
6.41504
5.95406
5.47324
4.99072
4.52414
4.08602
3.68177
3.31221
2.97623
2.67196
2.39771
2.15225
1.93431
1.74237
1.57422
1.42638
1.29457
1.17514
1.06572
0.964857
0.871739
0.785843
0.706627
0.633543
0.566139
0.504111
0.447453
0.396355
0.350855
0.310658
0.275272
0.244163
0.216818
0.192803
0.17177
0.153413
0.137443
0.123537
0.11129
0.10024
0.0899618
0.0801059
0.0703779
0.0605331
0.0503822
0.0397863
0.0287445
0.0173844
0.00582122
0.438253
1.32801
2.25485
3.23348
4.26101
5.30714
6.30815
7.17551
7.82693
8.22422
8.37783
8.323
8.10478
7.76762
7.34587
6.86568
6.34843
5.81209
5.27677
4.76406
4.28847
3.85429
3.46033
3.10407
2.78246
2.4932
2.23503
2.00671
1.80682
1.6332
1.48166
1.34671
1.2239
1.11075
1.00593
0.908844
0.819169
0.736384
0.659889
0.589182
0.523901
0.46414
0.410347
0.362696
0.320823
0.284106
0.251914
0.223656
0.198859
0.177178
0.158314
0.141993
0.127904
0.115595
0.104513
0.0941705
0.0841988
0.0742848
0.0641604
0.0536088
0.0424555
0.0307192
0.0185784
0.00621401
0.453666
1.37853
2.35344
3.40154
4.52617
5.69636
6.83456
7.82356
8.55082
8.97017
9.10522
9.00535
8.72835
8.32949
7.84652
7.30626
6.73054
6.13592
5.54453
4.98394
4.47141
4.0089
3.59227
3.2174
2.87979
2.5765
2.30651
2.06862
1.86169
1.68392
1.53027
1.39346
1.26805
1.15167
1.04324
0.942429
0.849273
0.763232
0.683602
0.609828
0.541411
0.478566
0.42215
0.372535
0.329219
0.291391
0.258317
0.229308
0.203852
0.181627
0.162348
0.145771
0.131624
0.119398
0.108411
0.0981001
0.0880964
0.0780735
0.0677394
0.0568443
0.0451545
0.0327118
0.019771
0.00660104
0.464256
1.41501
2.43042
3.54418
4.76898
6.07615
7.37326
8.50521
9.31591
9.75077
9.8564
9.69981
9.35353
8.88673
8.33888
7.73602
7.10048
6.44488
5.79334
5.18289
4.63457
4.14596
3.70861
3.317
2.9648
2.64832
2.36731
2.12053
1.9073
1.72674
1.57279
1.43549
1.30815
1.18895
1.07713
0.972755
0.876396
0.787406
0.704908
0.62832
0.55685
0.490853
0.431839
0.380465
0.33596
0.297242
0.263486
0.23388
0.207867
0.185191
0.165571
0.148815
0.134732
0.122746
0.111981
0.101786
0.0918263
0.081768
0.0712943
0.0601191
0.04791
0.0347331
0.0209614
0.00698045
0.469567
1.43592
2.48277
3.65658
4.9834
6.44153
7.92415
9.22657
10.1289
10.5685
10.6315
10.405
9.97749
9.4372
8.82166
8.1541
7.45863
6.73951
6.02245
5.35976
4.77774
4.26598
3.81001
3.40377
3.0384
2.70935
2.41807
2.16295
1.94388
1.76195
1.60987
1.47356
1.34476
1.22302
1.10795
1.00004
0.900757
0.809135
0.72402
0.644909
0.570443
0.501103
0.439463
0.386571
0.341162
0.301771
0.267539
0.237481
0.210992
0.187942
0.168039
0.151152
0.137254
0.125687
0.115275
0.105261
0.0954123
0.0853879
0.0748452
0.063466
0.0507523
0.0367913
0.0221445
0.00734871
0.469255
1.44001
2.50774
3.73383
5.16249
6.7861
8.48662
9.99553
10.9978
11.4249
11.43
11.1191
10.5965
9.97852
9.29367
8.55948
7.80585
7.0209
6.23083
5.51298
4.90079
4.36975
3.89717
3.4787
3.10162
2.76029
2.45949
2.19641
1.97154
1.78975
1.64224
1.5085
1.37838
1.25431
1.13602
1.02444
0.922553
0.828641
0.741123
0.659866
0.58244
0.509394
0.445032
0.390939
0.344955
0.305089
0.270596
0.240224
0.213305
0.189956
0.169808
0.152801
0.13921
0.128276
0.118348
0.108551
0.0988739
0.0889489
0.0784063
0.0669209
0.053717
0.0388912
0.0233091
0.00769996
0.463112
1.42639
2.50299
3.77107
5.29853
7.10173
9.05917
10.8225
11.9328
12.3203
12.2508
11.8403
11.2058
10.5083
9.75402
8.95071
8.1436
7.29096
6.41709
5.64045
5.00382
4.45846
3.97078
3.5429
3.15565
2.8017
2.49231
2.22152
1.99022
1.81015
1.67073
1.54128
1.40947
1.2832
1.16167
1.04604
0.941968
0.846152
0.75636
0.673489
0.593131
0.515761
0.44851
0.393657
0.347483
0.307298
0.27278
0.242228
0.214877
0.191307
0.170935
0.153763
0.140603
0.130572
0.121266
0.111677
0.102226
0.0924623
0.0819825
0.0705248
0.0568482
0.041032
0.0244355
0.00802522
0.451093
1.39465
2.4668
3.7638
5.38304
7.37806
9.6388
11.7214
12.9464
13.2521
13.0921
12.567
11.7989
11.0244
10.2024
9.32551
8.47416
7.55276
6.57917
5.73923
5.0873
4.5338
4.03131
3.59761
3.20184
2.83395
2.51734
2.23903
1.99964
1.82295
1.69635
1.57303
1.4383
1.31006
1.18524
1.06479
0.959182
0.861915
0.769798
0.686111
0.602871
0.520186
0.449794
0.394829
0.348917
0.308478
0.274219
0.24362
0.21576
0.192075
0.171487
0.154024
0.14142
0.132652
0.124107
0.114643
0.105482
0.0959366
0.0855651
0.0743265
0.0602026
0.0432049
0.0254926
0.0083114
0.433326
1.34486
2.3982
3.70812
5.40706
7.60214
10.2201
12.7106
14.0548
14.2136
13.9518
13.2988
12.367
11.5251
10.6395
9.6801
8.80091
7.81106
6.714
5.80529
5.15227
4.59816
4.07883
3.64421
3.24182
2.85707
2.5355
2.24991
1.99919
1.82764
1.72036
1.60515
1.4649
1.33524
1.20714
1.0805
0.974396
0.876221
0.781385
0.698124
0.61211
0.522568
0.448695
0.394588
0.349467
0.308678
0.275046
0.244542
0.215977
0.192345
0.171545
0.153543
0.141625
0.134611
0.126964
0.117434
0.10865
0.0993798
0.0891244
0.0783859
0.0638547
0.0453889
0.0264348
0.00854052
0.410109
1.27765
2.29714
3.6011
5.36145
7.75798
10.7935
13.8151
15.2786
15.1913
14.8281
14.0372
12.898
12.01
11.0677
10.0081
9.12872
8.07292
6.81693
5.83315
5.20077
4.65492
4.11259
3.68436
3.27765
2.87047
2.54791
2.25551
1.98783
1.82325
1.74444
1.63933
1.48889
1.35912
1.22789
1.0927
0.987859
0.889452
0.790876
0.710002
0.621441
0.522688
0.444919
0.393122
0.349399
0.307884
0.27541
0.24516
0.215506
0.192215
0.171218
0.152245
0.141146
0.136574
0.12996
0.120001
0.111744
0.102804
0.0925983
0.0827793
0.0679047
0.0475444
0.027199
0.0086892
0.381903
1.19417
2.16453
3.44104
5.23742
7.82621
11.3437
15.0684
16.645
16.1612
15.7203
14.7873
13.374
12.4807
11.4921
10.2991
9.46453
8.34869
6.88099
5.81539
5.23623
4.7088
4.13046
3.72005
3.31198
2.8726
2.55598
2.25776
1.96395
1.80823
1.77081
1.67777
1.50923
1.38215
1.24824
1.10054
0.999931
0.902137
0.797725
0.722343
0.631661
0.520157
0.43803
0.390704
0.349062
0.305987
0.275481
0.24568
0.214255
0.191804
0.170651
0.15001
0.139866
0.138713
0.133249
0.122241
0.114787
0.106235
0.0958762
0.0876067
0.0724878
0.0496048
0.0277024
0.00872891
0.349305
1.09607
2.00234
3.22788
5.02721
7.78408
11.8459
16.5153
18.1899
17.0837
16.6303
15.5603
13.7691
12.9418
11.9217
10.536
9.81823
8.65311
6.89579
5.7422
5.26419
4.76623
4.12817
3.75393
3.34846
2.86047
2.5616
2.25942
1.92517
1.7802
1.80248
1.72328
1.52391
1.40499
1.26931
1.1026
1.01116
0.915041
0.800929
0.735922
0.643849
0.514348
0.427424
0.38774
0.34891
0.302723
0.275472
0.246368
0.212025
0.191265
0.170054
0.146663
0.137604
0.141259
0.137039
0.123972
0.117822
0.10972
0.0987756
0.0930016
0.0777867
0.051464
0.0278422
0.0086274
0.313019
0.985401
1.8135
2.96337
4.72497
7.60584
12.2619
18.2156
19.9612
17.8969
17.5658
16.3757
14.045
13.4032
12.3711
10.6919
10.2038
9.00688
6.84614
5.60081
5.29307
4.836
4.0981
3.78967
3.39209
2.8289
2.56733
2.26442
1.86808
1.73572
1.8435
1.77951
1.52945
1.42861
1.29275
1.09663
1.02241
0.929294
0.798809
0.751778
0.659469
0.504298
0.412292
0.38482
0.349548
0.297604
0.275664
0.247584
0.208461
0.190799
0.169715
0.141949
0.1341
0.144529
0.141601
0.124896
0.120928
0.113349
0.10101
0.0991456
0.0840478
0.0529589
0.0274978
0.00835146
0.273821
0.864523
1.60182
2.65128
4.32774
7.26377
12.5343
20.2484
22.0235
18.507
18.5434
17.2658
14.1456
13.8822
12.8635
10.7258
10.6411
9.4384
6.7102
5.37497
5.33515
4.9299
4.02785
3.83248
3.44985
2.76956
2.57683
2.27824
1.78798
1.66999
1.89935
1.85129
1.52033
1.45459
1.32101
1.07914
1.035
0.946546
0.788722
0.771327
0.680491
0.488587
0.391587
0.382787
0.351776
0.289811
0.276444
0.249817
0.20298
0.190687
0.170039
0.135518
0.128983
0.14895
0.147298
0.124549
0.124246
0.117275
0.102143
0.106288
0.0915993
0.053847
0.0265371
0.00787122
0.232512
0.735973
1.37181
2.2974
3.83654
6.73027
12.5787
22.7174
24.4636
18.7764
19.5945
18.2799
13.9893
14.407
13.4333
10.5769
11.1582
9.98597
6.45708
5.0445
5.40772
5.06365
3.8982
3.89
3.53142
2.66973
2.59529
2.30842
1.67849
1.57643
1.9773
1.94496
1.48817
1.48545
1.35762
1.04495
1.05096
0.969187
0.766669
0.796522
0.709536
0.465179
0.363994
0.38281
0.356647
0.278065
0.278367
0.253744
0.194687
0.191322
0.171578
0.126897
0.121749
0.155092
0.154614
0.122233
0.128006
0.121748
0.101532
0.11477
0.100875
0.0537753
0.0248278
0.00716564
0.18989
0.602344
1.12843
1.9094
3.25731
5.98122
12.2743
25.757
27.3979
18.508
20.7721
19.4903
13.4592
15.0215
14.1305
10.1565
11.7944
10.7002
6.04395
4.58494
5.53432
5.25799
3.68069
3.97335
3.65011
2.51063
2.63012
2.36503
1.53112
1.44631
2.08688
2.06887
1.42071
1.52509
1.40758
0.986497
1.07333
1.00061
0.726801
0.830069
0.750041
0.431223
0.327909
0.386473
0.365548
0.260459
0.282223
0.260285
0.182257
0.193255
0.175068
0.115458
0.11172
0.163701
0.164192
0.116934
0.132574
0.127149
0.0982552
0.125065
0.11244
0.0522414
0.0222541
0.00622852
0.146707
0.466158
0.876852
1.49645
2.60169
5.00107
11.4517
29.5391
30.9825
17.4268
22.1604
20.9989
12.391
15.7904
15.0251
9.33963
12.6049
11.6465
5.41254
3.96743
5.74603
5.54003
3.33445
4.0986
3.82398
2.26543
2.69188
2.46123
1.33482
1.26826
2.24037
2.23396
1.30058
1.5794
1.47781
0.893057
1.10653
1.04553
0.660804
0.875707
0.806436
0.382825
0.281436
0.395855
0.380286
0.234246
0.289144
0.270691
0.16379
0.197264
0.18147
0.10039
0.0980122
0.175743
0.176883
0.107217
0.138498
0.134046
0.0910148
0.137815
0.127022
0.0485438
0.0187402
0.00507361
0.103649
0.329759
0.622153
1.06873
1.88725
3.78989
9.87842
34.2812
35.4244
15.1563
23.8865
22.945
10.5577
16.8074
16.2133
7.95339
13.6655
12.9081
4.48501
3.15899
6.08267
5.94495
2.80259
4.28862
4.07706
1.89676
2.79538
2.61379
1.07546
1.02778
2.45331
2.45451
1.10376
1.65707
1.57764
0.749745
1.15683
1.11038
0.55716
0.938566
0.884326
0.314761
0.222408
0.413619
0.403203
0.195598
0.300724
0.286623
0.136643
0.204429
0.192007
0.0806609
0.0794888
0.192438
0.193809
0.0911011
0.146578
0.143247
0.0780288
0.153893
0.145541
0.0417224
0.0142804
0.0037375
0.061313
0.195228
0.369058
0.636722
1.13704
2.3729
7.24169
40.2538
40.9957
11.1925
26.1351
25.5136
7.65241
18.203
17.8235
5.76402
15.0797
14.5886
3.15929
2.12318
6.59388
6.51793
2.00786
4.57529
4.44081
1.35388
2.96114
2.84357
0.735288
0.706741
2.74501
2.74901
0.79784
1.77046
1.71938
0.536357
1.23298
1.20373
0.400272
1.02562
0.990676
0.220175
0.148431
0.443074
0.437313
0.139307
0.319171
0.310262
0.0972214
0.216242
0.208202
0.0549847
0.0547209
0.215303
0.216432
0.0659108
0.157939
0.155869
0.0568986
0.17447
0.169145
0.0304859
0.00897689
0.00227794
0.0201976
0.0643342
0.121728
0.210454
0.378059
0.8125
3.12924
47.7897
48.0503
4.8724
29.1653
28.9445
3.268
20.1555
20.0236
2.46201
16.9865
16.8139
1.30401
0.821365
7.33979
7.31656
0.847795
5.00219
4.95558
0.569367
3.21717
3.17585
0.292427
0.282905
3.13897
3.14118
0.340014
1.93678
1.91893
0.226043
1.34685
1.33678
0.169476
1.14619
1.13397
0.0902256
0.0569786
0.488227
0.486456
0.058465
0.347485
0.34441
0.0407531
0.234723
0.231897
0.0217852
0.0219436
0.246184
0.24664
0.0281108
0.174123
0.173417
0.0244588
0.201092
0.199244
0.0131301
0.00308323
0.000765974
)
;

boundaryField
{
    left
    {
        type            calculated;
        value           uniform 0;
    }
    right
    {
        type            calculated;
        value           uniform 0;
    }
    interface
    {
        type            calculated;
        value           nonuniform List<scalar> 
64
(
0.0201976
0.0643342
0.121728
0.210454
0.378059
0.8125
3.12924
47.7897
48.0503
4.8724
29.1653
28.9445
3.268
20.1555
20.0236
2.46201
16.9865
16.8139
1.30401
0.821365
7.33979
7.31656
0.847795
5.00219
4.95558
0.569367
3.21717
3.17585
0.292427
0.282905
3.13897
3.14118
0.340014
1.93678
1.91893
0.226043
1.34685
1.33678
0.169476
1.14619
1.13397
0.0902256
0.0569786
0.488227
0.486456
0.058465
0.347485
0.34441
0.0407531
0.234723
0.231897
0.0217852
0.0219436
0.246184
0.24664
0.0281108
0.174123
0.173417
0.0244588
0.201092
0.199244
0.0131301
0.00308323
0.000765974
)
;
    }
    bottom
    {
        type            calculated;
        value           nonuniform List<scalar> 
64
(
0.0199741
0.0596806
0.0986376
0.136284
0.171991
0.205066
0.234795
0.260506
0.281632
0.297778
0.308763
0.314632
0.315643
0.312231
0.304957
0.294462
0.281416
0.266482
0.250282
0.233377
0.216249
0.199298
0.182835
0.167093
0.152234
0.138356
0.125509
0.113702
0.102911
0.0930914
0.0841793
0.0761024
0.0687843
0.0621495
0.0561272
0.0506533
0.0456716
0.0411337
0.0369986
0.0332317
0.0298036
0.0266894
0.0238667
0.0213155
0.0190165
0.016951
0.0151004
0.013446
0.0119696
0.0106527
0.00947738
0.00842604
0.00748151
0.00662727
0.00584759
0.00512782
0.00445461
0.0038162
0.00320262
0.00260579
0.00201959
0.00143964
0.000862959
0.000287571
)
;
    }
    defaultFaces
    {
        type            empty;
    }
}


// ************************************************************************* //
