/*--------------------------------*- C++ -*----------------------------------*\
| =========                 |                                                 |
| \\      /  F ield         | OpenFOAM: The Open Source CFD Toolbox           |
|  \\    /   O peration     | Version:  5.x                                   |
|   \\  /    A nd           | Web:      www.OpenFOAM.org                      |
|    \\/     M anipulation  |                                                 |
\*---------------------------------------------------------------------------*/
FoamFile
{
    version     2.0;
    format      ascii;
    class       volScalarField;
    location    "2.8";
    object      gradTy;
}
// * * * * * * * * * * * * * * * * * * * * * * * * * * * * * * * * * * * * * //

dimensions      [0 -1 0 1 0 0 0];

internalField   nonuniform List<scalar> 
2048
(
-21.2632
-21.176
-21.0029
-20.7458
-20.4083
-19.9952
-19.5132
-18.9702
-18.3758
-17.7406
-17.0758
-16.3928
-15.7028
-15.0158
-14.3411
-13.6863
-13.0579
-12.4605
-11.8975
-11.3711
-10.8822
-10.4307
-10.0157
-9.63603
-9.28972
-8.97474
-8.68884
-8.42975
-8.1952
-7.983
-7.7911
-7.6176
-7.46076
-7.31903
-7.19099
-7.07539
-6.9711
-6.87713
-6.79255
-6.71653
-6.64831
-6.58718
-6.53248
-6.48361
-6.43999
-6.4011
-6.36646
-6.3356
-6.30813
-6.28368
-6.26192
-6.24257
-6.22537
-6.21011
-6.19661
-6.18473
-6.17435
-6.16538
-6.15777
-6.15147
-6.14644
-6.14269
-6.14018
-6.13893
-21.3335
-21.2455
-21.0706
-20.8107
-20.4692
-20.0509
-19.5623
-19.0116
-18.4086
-17.7643
-17.0903
-16.3983
-15.6999
-15.0056
-14.3246
-13.6647
-13.0324
-12.4322
-11.8676
-11.3404
-10.8515
-10.4006
-9.9868
-9.60854
-9.2639
-8.95071
-8.66666
-8.40939
-8.17658
-7.96604
-7.77567
-7.60356
-7.44799
-7.30738
-7.18034
-7.06565
-6.96217
-6.86893
-6.78502
-6.70961
-6.64196
-6.58135
-6.52715
-6.47873
-6.43554
-6.39704
-6.36275
-6.33222
-6.30505
-6.28086
-6.25933
-6.24018
-6.22315
-6.20803
-6.19465
-6.18286
-6.17255
-6.16364
-6.15606
-6.14978
-6.14477
-6.14102
-6.13852
-6.13727
-21.4671
-21.3776
-21.1995
-20.9344
-20.5854
-20.1571
-19.656
-19.0906
-18.4711
-17.8092
-17.1174
-16.4083
-15.694
-14.9855
-14.2925
-13.623
-12.9833
-12.378
-11.8103
-11.2818
-10.793
-10.3434
-9.93179
-9.55636
-9.21496
-8.90522
-8.62469
-8.3709
-8.14144
-7.93404
-7.74657
-7.57711
-7.4239
-7.28542
-7.16028
-7.04728
-6.94533
-6.85347
-6.77081
-6.69656
-6.62997
-6.57036
-6.51708
-6.46953
-6.42714
-6.38938
-6.35577
-6.32586
-6.29924
-6.27555
-6.25446
-6.23568
-6.21898
-6.20413
-6.19096
-6.17934
-6.16916
-6.16034
-6.15283
-6.14659
-6.1416
-6.13786
-6.13537
-6.13411
-21.6567
-21.5652
-21.3827
-21.1105
-20.7512
-20.3089
-19.79
-19.2034
-18.56
-17.8727
-17.1551
-16.4212
-15.684
-14.9554
-14.2454
-13.5622
-12.9122
-12.2999
-11.728
-11.1979
-10.7095
-10.262
-9.85376
-9.48251
-9.14582
-8.84108
-8.56562
-8.3168
-8.09211
-7.88917
-7.70581
-7.54006
-7.3902
-7.25469
-7.1322
-7.02156
-6.92174
-6.8318
-6.75089
-6.67825
-6.61316
-6.55493
-6.50295
-6.45662
-6.41535
-6.37864
-6.34598
-6.31694
-6.29111
-6.26811
-6.24764
-6.2294
-6.21314
-6.19867
-6.18581
-6.17443
-6.16442
-6.15573
-6.1483
-6.1421
-6.13714
-6.13342
-6.13093
-6.12968
-21.8958
-21.802
-21.6146
-21.334
-20.9621
-20.5023
-19.9608
-19.3469
-18.6726
-17.9523
-17.2014
-16.4354
-15.6689
-14.9145
-14.1831
-13.4829
-12.8202
-12.1994
-11.6226
-11.0909
-10.6035
-10.1591
-9.75536
-9.38965
-9.05911
-8.76082
-8.49185
-8.24938
-8.03074
-7.83345
-7.65524
-7.49415
-7.34843
-7.2166
-7.09738
-6.98966
-6.89245
-6.80487
-6.72613
-6.65548
-6.59224
-6.53574
-6.48538
-6.44056
-6.40071
-6.3653
-6.33384
-6.30588
-6.28102
-6.2589
-6.23919
-6.22162
-6.20593
-6.19192
-6.17943
-6.16834
-6.15855
-6.15
-6.14266
-6.13653
-6.13159
-6.12787
-6.12538
-6.12413
-22.1786
-22.0826
-21.89
-21.6004
-21.2144
-20.7343
-20.166
-19.519
-18.8068
-18.046
-17.2542
-16.4492
-15.6472
-14.8621
-14.1052
-13.3851
-12.7079
-12.0774
-11.4956
-10.9626
-10.4771
-10.0368
-9.63892
-9.28015
-8.95718
-8.66673
-8.4056
-8.17074
-7.95932
-7.7687
-7.59658
-7.44092
-7.30002
-7.17245
-7.057
-6.95263
-6.85843
-6.77358
-6.69733
-6.62898
-6.56787
-6.51339
-6.46492
-6.42187
-6.38367
-6.34979
-6.31973
-6.29305
-6.26933
-6.24823
-6.22942
-6.21261
-6.19758
-6.18411
-6.17206
-6.16129
-6.15174
-6.14335
-6.13611
-6.13002
-6.1251
-6.12138
-6.11889
-6.11762
-22.4998
-22.4018
-22.2046
-21.9061
-21.5052
-21.0027
-20.4035
-19.7178
-18.9608
-18.1517
-17.3115
-16.4606
-15.6174
-14.797
-14.0112
-13.2687
-12.5755
-11.9349
-11.3481
-10.8145
-10.3319
-9.89718
-9.50656
-9.15617
-8.84218
-8.56091
-8.30887
-8.08279
-7.87963
-7.69664
-7.53139
-7.38183
-7.2463
-7.12343
-7.01213
-6.91145
-6.82056
-6.7387
-6.66519
-6.59939
-6.54066
-6.48842
-6.44207
-6.40102
-6.36468
-6.33252
-6.30403
-6.27878
-6.25635
-6.23638
-6.21857
-6.20263
-6.18833
-6.17547
-6.16388
-6.15348
-6.14417
-6.13595
-6.1288
-6.12275
-6.11784
-6.1141
-6.11158
-6.11031
-22.8543
-22.7551
-22.5543
-22.248
-21.8323
-21.3059
-20.6724
-19.9423
-19.1331
-18.2678
-17.3714
-16.4678
-15.5777
-14.7178
-13.9001
-13.1335
-12.4233
-11.7724
-11.1811
-10.648
-10.1697
-9.74204
-9.36024
-9.01971
-8.71607
-8.44525
-8.20348
-7.98725
-7.79334
-7.6188
-7.46111
-7.31819
-7.18843
-7.0706
-6.96372
-6.86696
-6.77959
-6.70093
-6.63036
-6.56728
-6.51112
-6.46131
-6.41727
-6.3784
-6.3441
-6.31383
-6.28707
-6.26337
-6.24233
-6.22361
-6.2069
-6.1919
-6.1784
-6.16618
-6.1551
-6.14507
-6.13602
-6.12795
-6.12088
-6.11485
-6.10991
-6.10614
-6.1036
-6.10231
-23.2371
-23.1377
-22.9353
-22.6231
-22.194
-21.6431
-20.9721
-20.1917
-19.3225
-18.3925
-17.4318
-16.4686
-15.5265
-14.6232
-13.7713
-12.9791
-12.2514
-11.5904
-10.9956
-10.4643
-9.99204
-9.57312
-9.2018
-8.87263
-8.58067
-8.32151
-8.0911
-7.88572
-7.70192
-7.53659
-7.38703
-7.25117
-7.12749
-7.0149
-6.91261
-6.81992
-6.73622
-6.6609
-6.59339
-6.53317
-6.47971
-6.43249
-6.39092
-6.35439
-6.32229
-6.29404
-6.26912
-6.24709
-6.22755
-6.21015
-6.1946
-6.18062
-6.16796
-6.15642
-6.14587
-6.13621
-6.12742
-6.11949
-6.11247
-6.10643
-6.10146
-6.09763
-6.09504
-6.09372
-23.6433
-23.5453
-23.3439
-23.029
-22.5889
-22.014
-21.3028
-20.466
-19.5282
-18.524
-17.4904
-16.4608
-15.4616
-14.5119
-13.6239
-12.8052
-12.06
-11.3894
-10.7922
-10.2646
-9.8003
-9.3921
-9.03299
-8.71666
-8.43766
-8.19126
-7.97322
-7.77961
-7.60675
-7.45128
-7.31036
-7.18185
-7.06441
-6.95717
-6.85954
-6.771
-6.69104
-6.61913
-6.55478
-6.4975
-6.44683
-6.4023
-6.36334
-6.32931
-6.29954
-6.27344
-6.25047
-6.23018
-6.2122
-6.1962
-6.18187
-6.16895
-6.15718
-6.14635
-6.13634
-6.12706
-6.11851
-6.1107
-6.1037
-6.09762
-6.09256
-6.08866
-6.086
-6.08466
-24.0679
-23.9734
-23.7766
-23.4634
-23.0162
-22.419
-21.6653
-20.7655
-19.7493
-18.6606
-17.545
-16.442
-15.3813
-14.3825
-13.4571
-12.6117
-11.8491
-11.1698
-10.5719
-10.05
-9.596
-9.20063
-8.8555
-8.55347
-8.2886
-8.05598
-7.85121
-7.67019
-7.50903
-7.36406
-7.23216
-7.1112
-7.00003
-6.89812
-6.80513
-6.72075
-6.64456
-6.5761
-6.51494
-6.46064
-6.41282
-6.37108
-6.33485
-6.30344
-6.27613
-6.25227
-6.23132
-6.21285
-6.19649
-6.18193
-6.16888
-6.15706
-6.14621
-6.13612
-6.12664
-6.11773
-6.10939
-6.10167
-6.09467
-6.08851
-6.08333
-6.07931
-6.07657
-6.07519
-24.506
-24.4173
-24.2297
-23.9241
-23.4754
-22.859
-22.0613
-21.091
-19.9851
-18.8002
-17.593
-16.4097
-15.2835
-14.2339
-13.2706
-12.3986
-11.6192
-10.9322
-10.3353
-9.82172
-9.38061
-9.00033
-8.67099
-8.38462
-8.13492
-7.91695
-7.72627
-7.55861
-7.40986
-7.27598
-7.15343
-7.04006
-6.93509
-6.83838
-6.74994
-6.66966
-6.59724
-6.53223
-6.47425
-6.42293
-6.37798
-6.33909
-6.3057
-6.27705
-6.2523
-6.23077
-6.2119
-6.19528
-6.18058
-6.16749
-6.15575
-6.14507
-6.13518
-6.12584
-6.1169
-6.10834
-6.10019
-6.09252
-6.08547
-6.07917
-6.07383
-6.06967
-6.06681
-6.06539
-24.9524
-24.8724
-24.6995
-24.4088
-23.9662
-23.3357
-22.493
-21.444
-20.235
-18.9405
-17.6314
-16.3612
-15.1663
-14.065
-13.0639
-12.166
-11.3707
-10.6771
-10.0832
-9.58083
-9.15565
-8.79284
-8.48105
-8.21161
-7.97795
-7.77536
-7.59945
-7.44583
-7.31021
-7.18801
-7.07508
-6.9692
-6.87019
-6.77847
-6.6944
-6.61815
-6.54946
-6.48786
-6.43303
-6.38466
-6.34254
-6.30654
-6.27612
-6.25035
-6.22826
-6.20913
-6.19239
-6.17764
-6.16461
-6.15302
-6.14261
-6.13311
-6.12421
-6.11562
-6.10721
-6.09897
-6.09098
-6.08333
-6.07618
-6.0697
-6.06414
-6.05978
-6.05681
-6.05534
-25.402
-25.3339
-25.182
-24.9152
-24.4886
-23.8513
-22.9641
-21.8267
-20.4981
-19.0789
-17.6572
-16.2936
-15.0278
-13.8751
-12.8371
-11.9144
-11.1042
-10.4048
-9.81609
-9.32851
-8.92272
-8.57983
-8.28727
-8.03585
-7.81886
-7.63222
-7.47169
-7.3327
-7.21093
-7.10105
-6.99795
-6.89929
-6.80586
-6.71881
-6.63887
-6.56654
-6.50154
-6.44332
-6.39158
-6.34607
-6.30672
-6.27363
-6.2463
-6.22356
-6.20423
-6.18754
-6.17294
-6.16007
-6.1487
-6.13863
-6.12957
-6.12129
-6.11341
-6.10559
-6.09766
-6.08971
-6.08185
-6.07418
-6.06689
-6.06017
-6.05432
-6.04973
-6.0466
-6.04509
-25.8495
-25.7969
-25.6733
-25.4408
-25.0425
-24.4087
-23.4789
-22.2419
-20.7731
-19.2118
-17.6668
-16.2036
-14.8661
-13.6638
-12.5903
-11.6446
-10.8207
-10.1157
-9.53444
-9.06595
-8.68357
-8.36295
-8.09117
-7.85871
-7.65873
-7.48843
-7.34377
-7.2199
-7.11273
-7.01596
-6.92286
-6.83091
-6.74251
-6.65975
-6.58362
-6.5151
-6.45379
-6.39885
-6.35015
-6.3074
-6.27065
-6.24048
-6.21641
-6.19687
-6.18036
-6.16616
-6.15371
-6.14268
-6.13297
-6.1244
-6.11671
-6.10968
-6.10287
-6.09582
-6.08835
-6.08065
-6.07287
-6.06514
-6.05766
-6.05063
-6.04441
-6.03954
-6.03625
-6.03469
-26.2901
-26.2565
-26.1688
-25.9826
-25.6278
-25.0115
-24.0436
-22.6936
-21.0579
-19.3352
-17.6568
-16.0879
-14.6796
-13.4313
-12.324
-11.3578
-10.5214
-9.80991
-9.23836
-8.7944
-8.44013
-8.14386
-7.89419
-7.68149
-7.49843
-7.34472
-7.21639
-7.10793
-7.01622
-6.93357
-6.85061
-6.76452
-6.68044
-6.60154
-6.52884
-6.46406
-6.40646
-6.35469
-6.30895
-6.26884
-6.23443
-6.20718
-6.1866
-6.17045
-6.15683
-6.14513
-6.13482
-6.12557
-6.11749
-6.11042
-6.10409
-6.09835
-6.09268
-6.08641
-6.07933
-6.07182
-6.06411
-6.05627
-6.04855
-6.04116
-6.03447
-6.02925
-6.02579
-6.0242
-26.7187
-26.7079
-26.6639
-26.5373
-26.2439
-25.6638
-24.6659
-23.1871
-21.349
-19.4436
-17.6236
-15.9427
-14.4666
-13.1784
-12.0389
-11.0554
-10.2081
-9.4872
-8.92761
-8.51523
-8.19464
-7.92415
-7.69771
-7.50548
-7.33868
-7.20169
-7.09014
-6.99712
-6.92183
-6.8547
-6.78206
-6.70046
-6.61984
-6.5444
-6.47461
-6.41355
-6.35981
-6.31103
-6.26821
-6.23058
-6.19813
-6.17375
-6.15699
-6.14451
-6.13378
-6.12457
-6.11638
-6.10881
-6.10232
-6.09675
-6.09176
-6.08737
-6.08293
-6.07744
-6.07065
-6.06329
-6.05561
-6.04762
-6.03964
-6.0318
-6.02451
-6.01888
-6.01526
-6.01366
-27.1308
-27.1461
-27.1539
-27.1006
-26.8897
-26.37
-25.3557
-23.7296
-21.6409
-19.5307
-17.5645
-15.7634
-14.2259
-12.9072
-11.7353
-10.7393
-9.88328
-9.14671
-8.60133
-8.23001
-7.94984
-7.70523
-7.50294
-7.332
-7.17991
-7.05977
-6.96564
-6.88755
-6.82984
-6.78023
-6.71814
-6.63889
-6.56075
-6.48852
-6.42092
-6.36369
-6.31408
-6.26797
-6.22809
-6.19285
-6.16169
-6.14015
-6.1277
-6.11922
-6.1113
-6.10458
-6.09851
-6.09244
-6.0875
-6.08344
-6.07971
-6.07674
-6.07368
-6.06899
-6.06233
-6.05506
-6.04742
-6.03922
-6.03096
-6.02261
-6.01454
-6.00843
-6.00467
-6.0031
-27.5222
-27.5667
-27.6335
-27.668
-27.563
-27.1344
-26.1254
-24.3317
-21.924
-19.5881
-17.4781
-15.5446
-13.9561
-12.6211
-11.4132
-10.4116
-9.55098
-8.78657
-8.25785
-7.94067
-7.70916
-7.48812
-7.31091
-7.16258
-7.02223
-6.91926
-6.84356
-6.779
-6.74032
-6.71115
-6.65997
-6.57972
-6.50308
-6.43413
-6.3676
-6.31453
-6.26961
-6.22556
-6.18877
-6.15592
-6.125
-6.10628
-6.09885
-6.09482
-6.08948
-6.08524
-6.08129
-6.07647
-6.07306
-6.07054
-6.06794
-6.06649
-6.065
-6.06114
-6.05437
-6.04714
-6.03956
-6.03107
-6.02257
-6.01366
-6.00455
-5.99788
-5.99405
-5.99257
-27.8892
-27.9653
-28.0976
-28.2337
-28.2605
-27.9611
-26.9907
-25.0084
-22.1834
-19.606
-17.3662
-15.2784
-13.6563
-12.3263
-11.0711
-10.0749
-9.21708
-8.4033
-7.89447
-7.64969
-7.47706
-7.27317
-7.1224
-6.9991
-6.86518
-6.78028
-6.72486
-6.67084
-6.65304
-6.64859
-6.60901
-6.52245
-6.44655
-6.3816
-6.31429
-6.26606
-6.22681
-6.1837
-6.15041
-6.12015
-6.08779
-6.07191
-6.0706
-6.07158
-6.06831
-6.06658
-6.06485
-6.06085
-6.05899
-6.05809
-6.05638
-6.05657
-6.05699
-6.054
-6.04672
-6.03951
-6.03209
-6.02318
-6.0145
-6.00501
-5.99449
-5.98718
-5.98341
-5.9821
-28.2288
-28.3381
-28.541
-28.7913
-28.9768
-28.8528
-27.9704
-25.7821
-22.3947
-19.5723
-17.236
-14.954
-13.3255
-12.0329
-10.7049
-9.73182
-8.8908
-7.99084
-7.50713
-7.36036
-7.25959
-7.05954
-6.93788
-6.8442
-6.70754
-6.64283
-6.611
-6.56186
-6.56747
-6.59392
-6.56721
-6.466
-6.39075
-6.33159
-6.26034
-6.21824
-6.18633
-6.14207
-6.11315
-6.08613
-6.04962
-6.03674
-6.0431
-6.04986
-6.04771
-6.04862
-6.04935
-6.04548
-6.04527
-6.04619
-6.04493
-6.04693
-6.04971
-6.0477
-6.03928
-6.03212
-6.02504
-6.01547
-6.00677
-5.99677
-5.98427
-5.97626
-5.97273
-5.97173
-28.5384
-28.6818
-28.9585
-29.3336
-29.7047
-29.8103
-29.0869
-26.6865
-22.5198
-19.4734
-17.1035
-14.5539
-12.9627
-11.7566
-10.3059
-9.38541
-8.58647
-7.53914
-7.09027
-7.07711
-7.06502
-6.8444
-6.75746
-6.70178
-6.54681
-6.50674
-6.50432
-6.45003
-6.48268
-6.54882
-6.53733
-6.40836
-6.33507
-6.28528
-6.20463
-6.17098
-6.14917
-6.10004
-6.07713
-6.05476
-6.00974
-6.00033
-6.01661
-6.03018
-6.02747
-6.03133
-6.03503
-6.03014
-6.03187
-6.03497
-6.03339
-6.03747
-6.04327
-6.04242
-6.03185
-6.02492
-6.01851
-6.00785
-5.99944
-5.98908
-5.97377
-5.96504
-5.96205
-5.96153
-28.8165
-28.9936
-29.3455
-29.8529
-30.4345
-30.8307
-30.3658
-27.773
-22.4997
-19.2938
-16.9986
-14.051
-12.5672
-11.5226
-9.85776
-9.03865
-8.3261
-7.032
-6.63672
-6.80585
-6.90486
-6.62186
-6.58088
-6.57785
-6.37862
-6.37174
-6.40862
-6.33208
-6.39728
-6.51532
-6.52335
-6.34618
-6.27874
-6.2447
-6.14534
-6.12416
-6.11691
-6.05644
-6.04247
-6.02744
-5.967
-5.96214
-5.99147
-6.01326
-6.00716
-6.01467
-6.02226
-6.0145
-6.01873
-6.02469
-6.02151
-6.02807
-6.03781
-6.03844
-6.02416
-6.01782
-6.01265
-6.00014
-5.99253
-5.9822
-5.96276
-5.95341
-5.95137
-5.95156
-29.0619
-29.2717
-29.6978
-30.3412
-31.1541
-31.9061
-31.8336
-29.1192
-22.2441
-19.0172
-16.9722
-13.4023
-12.1382
-11.3694
-9.33236
-8.69461
-8.14326
-6.44388
-6.13796
-6.55424
-6.79528
-6.3813
-6.40753
-6.48162
-6.19566
-6.23747
-6.32991
-6.20295
-6.30944
-6.49579
-6.53109
-6.27407
-6.22091
-6.21321
-6.07957
-6.07765
-6.092
-6.00929
-6.00931
-6.00636
-5.91962
-5.92155
-5.96815
-6.00014
-5.98604
-5.9986
-6.01166
-5.99803
-6.00584
-6.01575
-6.00889
-6.01858
-6.0335
-6.0362
-6.01576
-6.01075
-6.00774
-5.99207
-5.98609
-5.9765
-5.95094
-5.94127
-5.94077
-5.94193
-29.2745
-29.5148
-30.0117
-30.7904
-31.8491
-33.0219
-33.5157
-30.8426
-21.6183
-18.6283
-17.1057
-12.5403
-11.6757
-11.355
-8.68344
-8.35636
-8.08817
-5.73538
-5.5849
-6.3318
-6.75893
-6.10517
-6.23664
-6.42712
-5.98631
-6.10364
-6.27744
-6.05492
-6.21696
-6.49289
-6.56901
-6.1837
-6.16072
-6.19613
-6.00277
-6.03135
-6.07821
-5.95545
-5.97779
-5.99484
-5.86491
-5.87791
-5.94725
-5.99229
-5.96294
-5.98306
-6.0042
-5.97993
-5.99316
-6.00883
-5.99497
-6.00883
-6.03054
-6.03637
-6.00599
-6.00366
-6.00425
-5.98321
-5.98019
-5.97258
-5.93786
-5.92855
-5.93033
-5.93275
-29.4546
-29.7226
-30.2848
-31.1931
-32.503
-34.1551
-35.4295
-33.1183
-20.4234
-18.1149
-17.5236
-11.3616
-11.1809
-11.5659
-7.83852
-8.02707
-8.23468
-4.84682
-4.96949
-6.14961
-6.8276
-5.766
-6.06745
-6.4353
-5.73265
-5.97012
-6.26507
-5.87647
-6.1175
-6.50926
-6.6494
-6.06258
-6.09745
-6.20158
-5.90802
-5.98522
-6.08116
-5.89
-5.94807
-5.99779
-5.79882
-5.83066
-5.92951
-5.99182
-5.93604
-5.96801
-6.00133
-5.95894
-5.98071
-6.00496
-5.97892
-5.99867
-6.02914
-6.03991
-5.99388
-5.99651
-6.00289
-5.97293
-5.97491
-5.97132
-5.92284
-5.91522
-5.9202
-5.92416
-29.6032
-29.8952
-30.5155
-31.5428
-33.0986
-35.2729
-37.5764
-36.2042
-18.3717
-17.4725
-18.4101
-9.71067
-10.6575
-12.1272
-6.68783
-7.71038
-8.6893
-3.68958
-4.28765
-6.0194
-7.04562
-5.32242
-5.89976
-6.53677
-5.40779
-5.83732
-6.31301
-5.65067
-6.00909
-6.54706
-6.78995
-5.89233
-6.03081
-6.24155
-5.78493
-5.93941
-6.10907
-5.80558
-5.92034
-6.02234
-5.71538
-5.77954
-5.91572
-6.00169
-5.90262
-5.95347
-6.00517
-5.93322
-5.96855
-6.00562
-5.95952
-5.98798
-6.02952
-6.04824
-5.97802
-5.9893
-6.00474
-5.96027
-5.97032
-5.974
-5.90487
-5.90133
-5.91057
-5.9163
-29.7217
-30.0338
-30.7033
-31.8348
-33.6186
-36.3326
-39.9271
-40.4738
-15.0537
-16.7095
-20.0288
-7.35942
-10.1146
-13.2169
-5.07018
-7.41093
-9.60263
-2.13456
-3.54389
-5.95163
-7.47441
-4.71415
-5.73455
-6.77519
-4.97238
-5.70655
-6.44996
-5.35301
-5.89093
-6.60704
-7.01576
-5.6466
-5.96124
-6.3332
-5.61832
-5.89438
-6.17365
-5.69139
-5.89487
-6.07858
-5.60587
-5.72483
-5.90659
-6.02596
-5.85867
-5.93951
-6.01876
-5.90006
-5.9568
-6.01293
-5.93502
-5.97671
-6.03173
-6.06335
-5.95634
-5.9821
-6.01132
-5.94383
-5.96646
-5.9824
-5.88244
-5.88705
-5.90164
-5.90927
-29.8119
-30.1399
-30.8488
-32.0659
-34.0476
-37.2822
-42.4024
-46.4592
-9.89744
-15.8561
-22.7472
-3.98115
-9.56938
-15.0828
-2.75528
-7.13539
-11.1836
0.00283136
-2.75829
-5.95207
-8.19839
-3.85569
-5.57497
-7.21147
-4.37026
-5.58075
-6.71574
-4.94863
-5.76474
-6.68718
-7.36201
-5.28834
-5.89044
-6.50045
-5.38645
-5.85108
-6.29122
-5.53201
-5.87198
-6.18047
-5.45783
-5.66786
-5.90249
-6.07022
-5.79852
-5.9263
-6.04629
-5.85553
-5.94564
-6.02977
-5.90287
-5.96498
-6.03562
-6.08799
-5.92592
-5.97498
-6.02472
-5.92153
-5.96329
-5.99895
-5.85336
-5.87271
-5.89363
-5.90312
-29.8761
-30.2157
-30.9535
-32.2353
-34.3736
-38.0643
-44.8458
-54.9049
-2.11723
-14.9754
-27.0654
0.8812
-9.05214
-18.0624
0.577711
-6.89398
-13.7162
2.98139
-1.97643
-6.01662
-9.33238
-2.62867
-5.4277
-7.9287
-3.52301
-5.46534
-7.16432
-4.38881
-5.63664
-6.78071
-7.87731
-4.76643
-5.82205
-6.77586
-5.05891
-5.81122
-6.48397
-5.30592
-5.85216
-6.34696
-5.25372
-5.61158
-5.90304
-6.14196
-5.71419
-5.91413
-6.09339
-5.79408
-5.9353
-6.05996
-5.8594
-5.95313
-6.04053
-6.12588
-5.88263
-5.96807
-6.04774
-5.89045
-5.96063
-6.02687
-5.81443
-5.85887
-5.88665
-5.89778
-29.9164
-30.2634
-31.0201
-32.3444
-34.5896
-38.6228
-46.9875
-66.8336
9.347
-14.1774
-33.6487
7.85272
-8.61299
-22.6066
5.36539
-6.70264
-17.5798
7.15718
-1.2828
-6.12356
-11.031
-0.872728
-5.30471
-9.03776
-2.32354
-5.36949
-7.86737
-3.60664
-5.51991
-6.87324
-8.6278
-4.01172
-5.76249
-7.20268
-4.5941
-5.77767
-6.78148
-4.98378
-5.83608
-6.60324
-4.96933
-5.56142
-5.90658
-6.25116
-5.59479
-5.90347
-6.16748
-5.70804
-5.92614
-6.10849
-5.79951
-5.94186
-6.04511
-6.18197
-5.8208
-5.96151
-6.08398
-5.84649
-5.95803
-6.07037
-5.76115
-5.84638
-5.88065
-5.89301
-29.9353
-30.2859
-31.0517
-32.3967
-34.6952
-38.9132
-48.3993
-83.6246
25.901
-13.6384
-43.3632
17.7695
-8.33046
-29.3055
12.1887
-6.5862
-23.2717
13.0105
-0.818711
-6.22351
-13.5003
1.62448
-5.22599
-10.6842
-0.629299
-5.30835
-8.9187
-2.5125
-5.43916
-6.93977
-9.7027
-2.93298
-5.72275
-7.83788
-3.93698
-5.75557
-7.22307
-4.52712
-5.82544
-6.98296
-4.57253
-5.5271
-5.91007
-6.41169
-5.42648
-5.89573
-6.27888
-5.58775
-5.91934
-6.18242
-5.7169
-5.93322
-6.04761
-6.26351
-5.7335
-5.95623
-6.1388
-5.78485
-5.95548
-6.13558
-5.68803
-5.83727
-5.87606
-5.88916
)
;

boundaryField
{
    left
    {
        type            calculated;
        value           nonuniform List<scalar> 
32
(
-21.2632
-21.3335
-21.4671
-21.6567
-21.8958
-22.1786
-22.4998
-22.8543
-23.2371
-23.6433
-24.0679
-24.506
-24.9524
-25.402
-25.8495
-26.2901
-26.7187
-27.1308
-27.5222
-27.8892
-28.2288
-28.5384
-28.8165
-29.0619
-29.2745
-29.4546
-29.6032
-29.7217
-29.8119
-29.8761
-29.9164
-29.9353
)
;
    }
    right
    {
        type            calculated;
        value           nonuniform List<scalar> 
32
(
-6.13893
-6.13727
-6.13411
-6.12968
-6.12413
-6.11762
-6.11031
-6.10231
-6.09372
-6.08466
-6.07519
-6.06539
-6.05534
-6.04509
-6.03469
-6.0242
-6.01366
-6.0031
-5.99257
-5.9821
-5.97173
-5.96153
-5.95156
-5.94193
-5.93275
-5.92416
-5.9163
-5.90927
-5.90312
-5.89778
-5.89301
-5.88916
)
;
    }
    interface
    {
        type            calculated;
        value           nonuniform List<scalar> 
64
(
-29.9398
-30.2912
-31.0591
-32.4092
-34.7208
-38.9871
-48.8576
-93.433
35.6502
-13.4603
-49.1253
23.5833
-8.24024
-33.277
16.1917
-6.5505
-26.645
16.4252
-0.665916
-6.26349
-14.957
3.08851
-5.2008
-11.6624
0.361765
-5.2888
-9.54472
-1.87468
-5.41175
-6.96265
-10.3341
-2.29971
-5.70957
-8.21566
-3.55256
-5.74823
-7.48551
-4.25976
-5.8218
-7.20849
-4.34151
-5.51546
-5.91135
-6.50684
-5.3282
-5.89288
-6.34544
-5.51773
-5.91678
-6.2268
-5.66909
-5.92995
-6.04814
-6.31175
-5.68258
-5.95411
-6.17168
-5.749
-5.95428
-6.17456
-5.6458
-5.83393
-5.87425
-5.88758
)
;
    }
    bottom
    {
        type            calculated;
        value           nonuniform List<scalar> 
64
(
-21.2448
-21.1579
-20.9852
-20.7289
-20.3924
-19.9808
-19.5004
-18.9595
-18.3673
-17.7344
-17.072
-16.3914
-15.7034
-15.0184
-14.3453
-13.6919
-13.0645
-12.4678
-11.9053
-11.3791
-10.8902
-10.4385
-10.0233
-9.6432
-9.29646
-8.98101
-8.69464
-8.43508
-8.20007
-7.98744
-7.79514
-7.62127
-7.46411
-7.32208
-7.19377
-7.07794
-6.97344
-6.87928
-6.79452
-6.71834
-6.64997
-6.5887
-6.53388
-6.48488
-6.44116
-6.40217
-6.36742
-6.33648
-6.30894
-6.28442
-6.2626
-6.24319
-6.22595
-6.21065
-6.19712
-6.18522
-6.17482
-6.16584
-6.15822
-6.15191
-6.14688
-6.14312
-6.14062
-6.13937
)
;
    }
    defaultFaces
    {
        type            empty;
    }
}


// ************************************************************************* //
