/*--------------------------------*- C++ -*----------------------------------*\
| =========                 |                                                 |
| \\      /  F ield         | OpenFOAM: The Open Source CFD Toolbox           |
|  \\    /   O peration     | Version:  5.x                                   |
|   \\  /    A nd           | Web:      www.OpenFOAM.org                      |
|    \\/     M anipulation  |                                                 |
\*---------------------------------------------------------------------------*/
FoamFile
{
    version     2.0;
    format      ascii;
    class       volScalarField;
    location    "5.5";
    object      T;
}
// * * * * * * * * * * * * * * * * * * * * * * * * * * * * * * * * * * * * * //

dimensions      [0 0 0 1 0 0 0];

internalField   nonuniform List<scalar> 
2048
(
9.85437
9.85506
9.85642
9.85844
9.8611
9.86436
9.86817
9.87247
9.87719
9.88225
9.88757
9.89305
9.89862
9.90419
9.9097
9.91507
9.92027
9.92525
9.92997
9.93442
9.9386
9.94249
9.94609
9.94942
9.95249
9.95531
9.9579
9.96027
9.96243
9.96441
9.96622
9.96787
9.96938
9.97075
9.972
9.97314
9.97418
9.97511
9.97596
9.97673
9.97742
9.97805
9.97861
9.97911
9.97956
9.97996
9.98032
9.98064
9.98093
9.98118
9.98141
9.98161
9.98179
9.98196
9.9821
9.98223
9.98234
9.98243
9.98251
9.98258
9.98263
9.98267
9.9827
9.98271
9.56891
9.57095
9.57499
9.58099
9.58889
9.59856
9.60987
9.62265
9.63667
9.6517
9.66748
9.68376
9.70029
9.71682
9.73315
9.74909
9.76448
9.77921
9.7932
9.80637
9.81871
9.8302
9.84086
9.8507
9.85976
9.86809
9.87572
9.8827
9.88909
9.89493
9.90027
9.90514
9.90958
9.91363
9.91732
9.92068
9.92374
9.9265
9.92901
9.93128
9.93332
9.93515
9.9368
9.93828
9.93961
9.94079
9.94185
9.94279
9.94364
9.94439
9.94506
9.94566
9.9462
9.94667
9.94709
9.94747
9.94779
9.94807
9.94831
9.94851
9.94867
9.94879
9.94887
9.94891
9.2944
9.29774
9.30438
9.31425
9.32723
9.34315
9.36177
9.3828
9.4059
9.43065
9.45665
9.48345
9.51063
9.53781
9.56462
9.59077
9.61601
9.64014
9.66302
9.68456
9.70471
9.72347
9.74085
9.75689
9.77165
9.7852
9.79762
9.80898
9.81938
9.82888
9.83755
9.84547
9.8527
9.85929
9.86529
9.87075
9.87572
9.88022
9.8843
9.88798
9.8913
9.89428
9.89696
9.89936
9.90151
9.90343
9.90515
9.90668
9.90805
9.90927
9.91036
9.91133
9.9122
9.91297
9.91366
9.91426
9.91479
9.91525
9.91564
9.91597
9.91622
9.91642
9.91655
9.91661
9.02959
9.0342
9.04337
9.05702
9.07498
9.09703
9.12285
9.15203
9.18407
9.21842
9.25447
9.29162
9.32927
9.36687
9.40392
9.44001
9.47479
9.508
9.53946
9.56903
9.59667
9.62236
9.64613
9.66806
9.68822
9.70672
9.72367
9.73917
9.75333
9.76628
9.7781
9.78889
9.79874
9.80773
9.81591
9.82336
9.83012
9.83626
9.84181
9.84683
9.85135
9.85541
9.85906
9.86232
9.86524
9.86786
9.87019
9.87227
9.87412
9.87578
9.87726
9.87858
9.87976
9.88081
9.88174
9.88257
9.88329
9.88392
9.88445
9.88489
9.88524
9.88551
9.88568
9.88577
8.77345
8.7793
8.79096
8.80831
8.83119
8.8593
8.89226
8.92953
8.97049
9.01439
9.06045
9.10787
9.15588
9.20375
9.25086
9.29667
9.34075
9.38277
9.42249
9.45979
9.49458
9.52688
9.55674
9.58424
9.6095
9.63266
9.65386
9.67324
9.69096
9.70713
9.7219
9.73539
9.7477
9.75893
9.76916
9.77846
9.78692
9.79459
9.80153
9.80779
9.81343
9.8185
9.82305
9.82712
9.83076
9.83401
9.83691
9.8395
9.84181
9.84387
9.84571
9.84736
9.84882
9.85013
9.8513
9.85233
9.85323
9.85401
9.85468
9.85524
9.85568
9.85601
9.85623
9.85634
8.52512
8.53219
8.54628
8.56729
8.59502
8.62916
8.66925
8.71464
8.76454
8.81804
8.87413
8.93183
8.99015
9.04821
9.10525
9.1606
9.21376
9.26433
9.31205
9.35676
9.3984
9.43699
9.47261
9.50538
9.53544
9.56298
9.58816
9.61118
9.63219
9.65139
9.66891
9.68491
9.69952
9.71284
9.72498
9.73603
9.74607
9.75517
9.7634
9.77083
9.77751
9.78352
9.7889
9.79372
9.79802
9.80186
9.80528
9.80833
9.81106
9.81349
9.81566
9.8176
9.81934
9.82088
9.82226
9.82348
9.82456
9.82549
9.82628
9.82695
9.82747
9.82787
9.82813
9.82827
8.28392
8.29217
8.30865
8.33325
8.3658
8.40595
8.45319
8.50676
8.5657
8.62889
8.69512
8.76315
8.8318
8.90002
8.96689
9.03165
9.0937
9.15259
9.20804
9.25987
9.30805
9.35261
9.39367
9.4314
9.46597
9.49759
9.52649
9.55288
9.57697
9.59897
9.61905
9.63739
9.65413
9.6694
9.68332
9.69599
9.7075
9.71793
9.72737
9.73588
9.74353
9.7504
9.75655
9.76205
9.76695
9.77133
9.77523
9.7787
9.78181
9.78457
9.78705
9.78926
9.79124
9.79301
9.79459
9.79599
9.79722
9.79829
9.7992
9.79997
9.80058
9.80103
9.80134
9.80149
8.04928
8.05868
8.07748
8.10561
8.14292
8.18908
8.24352
8.30537
8.37351
8.44656
8.52307
8.60154
8.68059
8.75897
8.83561
8.90965
8.98041
9.04741
9.11032
9.16899
9.2234
9.27362
9.31981
9.36218
9.40095
9.43639
9.46873
9.49825
9.52518
9.54977
9.57221
9.59271
9.61144
9.62852
9.6441
9.65827
9.67115
9.68282
9.69336
9.70287
9.71142
9.71908
9.72593
9.73205
9.73751
9.74237
9.7467
9.75056
9.754
9.75707
9.75982
9.76228
9.76448
9.76645
9.76821
9.76977
9.77115
9.77236
9.77339
9.77425
9.77493
9.77545
9.77579
9.77597
7.82074
7.83125
7.85229
7.88386
7.92588
7.97803
8.03974
8.11002
8.18754
8.27068
8.35767
8.44675
8.53629
8.62485
8.71122
8.79443
8.87375
8.94863
9.01875
9.08397
9.1443
9.19986
9.25087
9.29758
9.34026
9.37923
9.41476
9.44716
9.4767
9.50366
9.52829
9.55078
9.57134
9.5901
9.60721
9.62278
9.63692
9.64973
9.66131
9.67174
9.6811
9.68949
9.69698
9.70367
9.70962
9.71492
9.71963
9.72383
9.72758
9.73092
9.73391
9.73659
9.73899
9.74115
9.74308
9.7448
9.74631
9.74764
9.74878
9.74973
9.75049
9.75106
9.75145
9.75164
7.59794
7.6095
7.63269
7.66759
7.71422
7.77236
7.8414
7.92028
8.00743
8.10093
8.19866
8.29855
8.3987
8.49748
8.59355
8.68584
8.77354
8.8561
8.93318
9.00465
9.07059
9.13118
9.18669
9.23743
9.28374
9.32595
9.36441
9.39945
9.43139
9.46053
9.48715
9.51148
9.53372
9.55403
9.57256
9.58942
9.60474
9.6186
9.63113
9.6424
9.65251
9.66156
9.66964
9.67682
9.68322
9.6889
9.69396
9.69846
9.70248
9.70606
9.70927
9.71215
9.71473
9.71705
9.71913
9.72099
9.72264
9.72409
9.72533
9.72636
9.7272
9.72782
9.72824
9.72845
7.38062
7.39315
7.41836
7.45645
7.50757
7.57164
7.6481
7.73578
7.83286
7.93704
8.04581
8.15673
8.26764
8.3767
8.48243
8.58369
8.67962
8.76964
8.85342
8.93086
9.00209
9.06738
9.12708
9.18156
9.2312
9.27641
9.31754
9.35498
9.3891
9.42022
9.44866
9.47467
9.49846
9.52021
9.54005
9.5581
9.5745
9.58934
9.60273
9.61478
9.62558
9.63522
9.64381
9.65145
9.65824
9.66427
9.66962
9.67439
9.67864
9.68244
9.68583
9.68888
9.69163
9.6941
9.69632
9.69832
9.70009
9.70164
9.70298
9.7041
9.70501
9.70568
9.70614
9.70637
7.16856
7.18198
7.20905
7.25013
7.30559
7.37551
7.45946
7.55617
7.66353
7.77877
7.89891
8.02112
8.14293
8.26232
8.37768
8.48781
8.59182
8.68908
8.77929
8.86239
8.93859
9.00827
9.07184
9.12976
9.18247
9.2304
9.27397
9.31359
9.34967
9.38258
9.41268
9.44022
9.46545
9.48851
9.50956
9.52872
9.54611
9.56184
9.57603
9.58879
9.60021
9.61039
9.61945
9.62749
9.63461
9.64094
9.64656
9.65155
9.656
9.65998
9.66354
9.66675
9.66963
9.67224
9.67459
9.67671
9.6786
9.68026
9.68169
9.68289
9.68386
9.68459
9.68508
9.68533
6.96162
6.97583
7.00456
7.0484
7.10796
7.18363
7.27512
7.38113
7.49917
7.62591
7.7578
7.89157
8.02444
8.15418
8.27914
8.39803
8.50994
8.61424
8.7106
8.79905
8.8799
8.95363
9.02078
9.08185
9.13736
9.18776
9.23353
9.27511
9.31295
9.34747
9.37906
9.40801
9.43455
9.45883
9.481
9.50117
9.51948
9.53603
9.55096
9.56436
9.57634
9.587
9.59647
9.60485
9.61228
9.61885
9.62469
9.62988
9.63451
9.63864
9.64234
9.64568
9.64869
9.65142
9.65389
9.65612
9.65812
9.65988
9.66141
9.66269
9.66372
9.6645
9.66503
9.66529
6.75972
6.77458
6.80474
6.85104
6.91442
6.99566
7.09474
7.21034
7.33954
7.47827
7.62233
7.76795
7.912
8.05214
8.18662
8.31415
8.43379
8.54491
8.64716
8.74063
8.82578
8.90325
8.97366
9.03761
9.09566
9.1483
9.19604
9.23937
9.27877
9.31472
9.34766
9.37789
9.40564
9.43105
9.45425
9.47536
9.49451
9.51182
9.52741
9.5414
9.55389
9.56498
9.5748
9.58348
9.59116
9.59795
9.60397
9.60933
9.61409
9.61836
9.62218
9.62563
9.62875
9.63159
9.63417
9.63651
9.63861
9.64047
9.64208
9.64344
9.64454
9.64537
9.64592
9.6462
6.56281
6.57818
6.6095
6.65789
6.72474
6.8113
6.91798
7.04351
7.18442
7.33571
7.49238
7.65014
7.8055
7.95602
8.09995
8.23597
8.36318
8.4809
8.58877
8.68692
8.77603
8.8569
8.93028
8.99684
9.05718
9.11184
9.16134
9.20621
9.24699
9.2842
9.31833
9.34974
9.3786
9.40506
9.42922
9.45119
9.47111
9.48911
9.50532
9.51984
9.53278
9.54426
9.55439
9.56331
9.57119
9.57816
9.58434
9.58982
9.59471
9.59908
9.603
9.60654
9.60976
9.61269
9.61538
9.61782
9.62002
9.62197
9.62367
9.62511
9.62627
9.62715
9.62773
9.62803
6.37088
6.38659
6.41876
6.46882
6.53868
6.63025
6.7445
6.88033
7.03363
7.19812
7.36787
7.53804
7.70481
7.86566
8.01894
8.16331
8.2979
8.42204
8.53523
8.6377
8.73039
8.81435
8.89041
8.95932
9.02174
9.0782
9.12925
9.17548
9.21744
9.25573
9.29094
9.32342
9.35333
9.38075
9.4058
9.42857
9.4492
9.46783
9.48459
9.4996
9.51296
9.52476
9.53515
9.54428
9.55233
9.55943
9.56573
9.57132
9.5763
9.58076
9.58476
9.58837
9.59167
9.59469
9.59747
9.6
9.6023
9.60435
9.60613
9.60765
9.60887
9.60979
9.61041
9.61072
6.18395
6.19982
6.23249
6.28374
6.35608
6.4522
6.57394
6.72052
6.88702
7.06542
7.2487
7.43159
7.6098
7.78089
7.9434
8.09594
8.23773
8.36811
8.48635
8.59276
8.68865
8.77537
8.85383
8.92485
8.98914
9.0472
9.09961
9.14701
9.18998
9.22919
9.26534
9.29882
9.32969
9.35802
9.3839
9.40741
9.42868
9.44788
9.46515
9.4806
9.49434
9.50644
9.51703
9.52631
9.53449
9.5417
9.54809
9.55376
9.55882
9.56334
9.5674
9.57107
9.57443
9.57753
9.58039
9.58303
9.58542
9.58756
9.58943
9.59101
9.5923
9.59327
9.59392
9.59424
6.00206
6.01791
6.05069
6.10259
6.17675
6.27688
6.40593
6.56375
6.74447
6.93755
7.13483
7.33071
7.52036
7.70153
7.87313
8.03365
8.18246
8.31895
8.44195
8.55186
8.65054
8.73973
8.82033
8.89322
8.9592
9.01868
9.07227
9.12068
9.16446
9.20442
9.24139
9.2758
9.3076
9.33678
9.36344
9.38761
9.40946
9.4292
9.44692
9.46277
9.47686
9.48921
9.49996
9.50936
9.51763
9.52492
9.53137
9.5371
9.54221
9.54677
9.55088
9.5546
9.558
9.56117
9.56412
9.56685
9.56933
9.57156
9.57351
9.57517
9.57652
9.57754
9.57822
9.57855
5.82525
5.84088
5.87339
5.92533
6.00058
6.104
6.24007
6.4097
6.60592
6.81451
7.02619
7.23538
7.43637
7.62737
7.80794
7.9762
8.13183
8.27439
8.40185
8.51478
8.61582
8.70721
8.78968
8.86423
8.93175
8.99247
9.04706
9.09633
9.14076
9.18127
9.21895
9.25428
9.28695
9.31692
9.34432
9.36911
9.39148
9.4117
9.42984
9.44605
9.46046
9.47303
9.48389
9.49336
9.50168
9.50902
9.51551
9.52129
9.52642
9.53102
9.53516
9.5389
9.54234
9.54556
9.5486
9.55142
9.55399
9.55631
9.55835
9.56008
9.5615
9.56256
9.56326
9.56361
5.6536
5.66881
5.70063
5.75197
5.82745
5.93328
6.07591
6.25799
6.47139
6.69635
6.92272
7.14557
7.3577
7.55818
7.74765
7.92335
8.08558
8.23427
8.36592
8.4813
8.58422
8.67759
8.76169
8.83767
8.90662
8.96842
9.02383
9.07385
9.11874
9.1596
9.19788
9.23413
9.26765
9.29837
9.32648
9.35181
9.37464
9.39532
9.41382
9.43037
9.4451
9.45784
9.46876
9.47824
9.4866
9.49396
9.50047
9.50627
9.51142
9.51603
9.52019
9.52395
9.5274
9.53068
9.5338
9.53671
9.53937
9.54178
9.5439
9.5457
9.54719
9.5483
9.54903
9.54938
5.48715
5.50176
5.53247
5.58254
5.65731
5.76447
5.91297
6.10818
6.34099
6.58315
6.8243
7.06131
7.28424
7.49368
7.69207
7.87485
8.0434
8.19848
8.33402
8.45116
8.55545
8.65066
8.73615
8.81333
8.88368
8.94639
9.00245
9.05313
9.09829
9.13928
9.17805
9.21529
9.24962
9.28102
9.30984
9.33565
9.35887
9.37998
9.39881
9.41564
9.4307
9.4436
9.45451
9.46396
9.47234
9.47969
9.48619
9.49201
9.49717
9.50177
9.50594
9.50969
9.51315
9.51647
9.51969
9.52268
9.52543
9.52794
9.53013
9.53201
9.53357
9.53473
9.53547
9.53583
5.32596
5.33978
5.36899
5.41711
5.49013
5.59732
5.7507
5.95973
6.215
6.47503
6.73077
6.98268
7.21586
7.43352
7.64109
7.83044
8.00492
8.16696
8.30606
8.42412
8.52919
8.62626
8.71289
8.791
8.8628
8.92624
8.98274
9.03408
9.07933
9.12016
9.1593
9.19767
9.2328
9.26479
9.29434
9.32057
9.34408
9.36563
9.38472
9.40181
9.41724
9.43026
9.44109
9.45046
9.45885
9.46617
9.47264
9.47848
9.48361
9.4882
9.49238
9.49611
9.49954
9.50289
9.50623
9.50931
9.51214
9.51475
9.51702
9.51896
9.5206
9.5218
9.52257
9.52292
5.17007
5.18294
5.21028
5.25576
5.32595
5.43164
5.58848
5.81192
6.09392
6.37218
6.64181
6.90986
7.15244
7.37728
7.59464
7.78985
7.96971
8.13972
8.28199
8.39991
8.50509
8.60425
8.69171
8.77045
8.8439
8.90786
8.96455
9.01664
9.06175
9.10208
9.14146
9.18123
9.2171
9.24958
9.27994
9.30649
9.33019
9.35222
9.37151
9.3888
9.40467
9.41777
9.42845
9.43768
9.44608
9.45334
9.45976
9.46562
9.47073
9.47527
9.47947
9.48316
9.48654
9.48992
9.49339
9.49656
9.49945
9.50218
9.50452
9.50652
9.50826
9.50951
9.51028
9.51063
5.01952
5.03128
5.05641
5.09862
5.16484
5.26729
5.42566
5.66381
5.97857
6.27484
6.55692
6.84317
7.09384
7.32436
7.55278
7.75281
7.93718
8.11687
8.26179
8.37822
8.48274
8.58456
8.67248
8.75141
8.82692
8.89112
8.94768
9.00078
9.04549
9.08491
9.12437
9.16596
9.20249
9.23528
9.26662
9.29335
9.31711
9.33972
9.35912
9.37652
9.39298
9.40612
9.41652
9.42555
9.434
9.44118
9.44751
9.45342
9.45847
9.46295
9.46718
9.47081
9.47411
9.4775
9.48115
9.48439
9.48735
9.49021
9.4926
9.49466
9.49651
9.49781
9.49858
9.49892
4.87431
4.88485
4.90746
4.9458
5.00695
5.10421
5.26153
5.51408
5.87022
6.18325
6.47531
6.78316
7.03993
7.27399
7.51575
7.71905
7.90657
8.09871
8.24549
8.35875
8.46166
8.5672
8.65503
8.73357
8.81188
8.87592
8.93192
8.98649
9.0305
9.0685
9.1078
9.1519
9.18891
9.22176
9.25437
9.28111
9.30472
9.3281
9.34748
9.36488
9.38215
9.39527
9.40527
9.41401
9.42259
9.42965
9.43584
9.44185
9.44681
9.4512
9.4555
9.45905
9.46222
9.4656
9.46949
9.47279
9.47578
9.47881
9.48125
9.48335
9.48534
9.48667
9.48743
9.48776
4.73443
4.74365
4.7635
4.79747
4.85248
4.94246
5.09537
5.36087
5.77078
6.09769
6.39574
6.73072
6.99057
7.22507
7.48406
7.6883
7.87685
8.08572
8.23314
8.34113
8.44125
8.55231
8.63925
8.71654
8.79888
8.86216
8.91699
8.97385
9.01675
9.05267
9.09148
9.13915
9.17634
9.20886
9.24323
9.2697
9.29289
9.31738
9.33654
9.35377
9.37219
9.3852
9.39463
9.403
9.41183
9.4187
9.4247
9.43089
9.43572
9.43997
9.4444
9.44783
9.45082
9.45418
9.4584
9.46173
9.46472
9.46797
9.47042
9.47254
9.47473
9.47609
9.47682
9.47713
4.59986
4.60768
4.6246
4.65376
4.70166
4.78222
4.92653
5.2016
5.68302
6.01843
6.31638
6.68721
6.94562
7.17612
7.4586
7.66028
7.84663
8.07873
8.22482
8.32498
8.42076
8.5402
8.62502
8.6998
8.78814
8.84976
8.90254
8.963
9.00422
9.03728
9.0751
9.12788
9.16472
9.19635
9.23328
9.25908
9.28147
9.3076
9.32625
9.34303
9.36315
9.37589
9.38455
9.39243
9.40171
9.40832
9.41403
9.42053
9.42516
9.42922
9.43388
9.43715
9.4399
9.44318
9.44787
9.45119
9.45412
9.45767
9.4601
9.46219
9.46465
9.46602
9.46671
9.46698
4.47054
4.47692
4.49078
4.51482
4.55481
4.62383
4.7545
5.03261
5.61091
5.94566
6.2346
6.65469
6.90489
7.12512
7.44079
7.63472
7.81404
8.07901
8.22058
8.30988
8.39926
8.53143
8.61221
8.68269
8.78002
8.83861
8.8881
8.95418
8.9929
9.02219
9.05823
9.11839
9.15404
9.18397
9.22466
9.24921
9.27025
9.29886
9.31656
9.3325
9.35511
9.36732
9.37497
9.38221
9.39225
9.39846
9.40376
9.41077
9.41512
9.41889
9.42393
9.42698
9.42941
9.43255
9.43792
9.44113
9.44394
9.44792
9.45027
9.45228
9.4551
9.45645
9.45707
9.45731
4.3464
4.35133
4.36207
4.38077
4.41223
4.46781
4.57909
4.84882
5.55996
5.87946
6.14671
6.63615
6.86816
7.06929
7.43276
7.61136
7.77654
8.0884
8.22039
8.29545
8.37554
8.52684
8.60073
8.66436
8.77513
8.82863
8.87306
8.94777
8.98278
9.00725
9.04032
9.11113
9.14425
9.17134
9.21761
9.24003
9.25895
9.29131
9.30743
9.32194
9.34818
9.35947
9.36585
9.37223
9.3835
9.3891
9.39382
9.40164
9.40556
9.40892
9.41456
9.4173
9.41933
9.42222
9.42856
9.43156
9.43412
9.43871
9.44089
9.44273
9.44607
9.44736
9.44788
9.44808
4.22736
4.23085
4.23844
4.25173
4.27426
4.31484
4.40064
4.64323
5.53771
5.81969
6.04763
6.63583
6.83513
7.00492
7.43757
7.58993
7.73076
8.10954
8.22406
8.2813
8.34804
8.52768
8.59045
8.64363
8.77433
8.81969
8.85663
8.94433
8.97381
8.99239
9.02064
9.10673
9.13529
9.15796
9.21249
9.23149
9.24725
9.28519
9.29881
9.31105
9.34258
9.35229
9.35712
9.36236
9.3755
9.38021
9.38411
9.39317
9.39646
9.39924
9.40581
9.40809
9.40963
9.41211
9.41984
9.42243
9.42459
9.43007
9.43194
9.43351
9.43758
9.43872
9.43912
9.43926
4.11331
4.11537
4.11987
4.12776
4.14121
4.16578
4.22031
4.40633
5.55431
5.76588
5.93062
6.65957
6.80536
6.92712
7.45951
7.57016
7.67227
8.14609
8.23111
8.26719
8.31477
8.53572
8.58122
8.61903
8.77884
8.81167
8.83779
8.94464
8.96591
8.97758
8.99824
9.10609
9.1271
9.1432
9.20978
9.22353
9.23469
9.28084
9.29065
9.29944
9.33857
9.34572
9.34876
9.35243
9.36839
9.37177
9.3745
9.38544
9.38779
9.38974
9.3977
9.39933
9.4003
9.40212
9.41182
9.41372
9.41528
9.42204
9.4234
9.42454
9.42965
9.43051
9.43076
9.43085
4.00413
4.00481
4.00629
4.0089
4.01335
4.02154
4.04042
4.1254
5.62312
5.71707
5.78683
6.71524
6.77826
6.82951
7.50433
7.55173
7.59533
8.20303
8.24061
8.25304
8.27315
8.55332
8.57282
8.5886
8.79033
8.80438
8.81521
8.94978
8.9589
8.96291
8.9719
9.11039
9.11954
9.12624
9.21019
9.21606
9.2207
9.27874
9.28291
9.28663
9.33654
9.33968
9.34072
9.34225
9.36229
9.36373
9.36486
9.37853
9.37952
9.38033
9.3903
9.391
9.39133
9.39213
9.40459
9.40542
9.40608
9.41467
9.41525
9.41574
9.4223
9.42269
9.42278
9.42281
)
;

boundaryField
{
    left
    {
        type            zeroGradient;
    }
    right
    {
        type            zeroGradient;
    }
    interface
    {
        type            fixedValue;
        value           nonuniform List<scalar> 
64
(
3.95074
3.95074
3.95074
3.95074
3.95074
3.95074
3.95074
3.95074
5.69385
5.69385
5.69385
6.76532
6.76532
6.76532
7.54282
7.54282
7.54282
8.24593
8.24593
8.24593
8.24593
8.56881
8.56881
8.56881
8.8009
8.8009
8.8009
8.95561
8.95561
8.95561
8.95561
9.11591
9.11591
9.11591
9.21245
9.21245
9.21245
9.27914
9.27914
9.27914
9.33679
9.33679
9.33679
9.33679
9.35981
9.35981
9.35981
9.37548
9.37548
9.37548
9.38694
9.38694
9.38694
9.38694
9.40137
9.40137
9.40137
9.41127
9.41127
9.41127
9.41888
9.41888
9.41888
9.41888
)
;
    }
    bottom
    {
        type            fixedValue;
        value           uniform 10;
    }
    defaultFaces
    {
        type            empty;
    }
}


// ************************************************************************* //
