/*--------------------------------*- C++ -*----------------------------------*\
| =========                 |                                                 |
| \\      /  F ield         | OpenFOAM: The Open Source CFD Toolbox           |
|  \\    /   O peration     | Version:  5.x                                   |
|   \\  /    A nd           | Web:      www.OpenFOAM.org                      |
|    \\/     M anipulation  |                                                 |
\*---------------------------------------------------------------------------*/
FoamFile
{
    version     2.0;
    format      ascii;
    class       volScalarField;
    location    "4";
    object      gradTx;
}
// * * * * * * * * * * * * * * * * * * * * * * * * * * * * * * * * * * * * * //

dimensions      [0 -1 0 1 0 0 0];

internalField   nonuniform List<scalar> 
2048
(
0.0213725
0.0638726
0.105612
0.146021
0.184449
0.220179
0.252466
0.280601
0.303976
0.32216
0.334935
0.342319
0.344551
0.342051
0.335381
0.325186
0.312153
0.29697
0.280287
0.2627
0.244728
0.226803
0.209272
0.192399
0.176371
0.16131
0.147285
0.134318
0.122398
0.111484
0.101517
0.0924244
0.0841298
0.0765556
0.069629
0.0632842
0.057464
0.0521197
0.0472105
0.0427029
0.0385689
0.0347849
0.0313301
0.0281854
0.0253319
0.0227504
0.020421
0.0183231
0.0164357
0.0147373
0.0132064
0.0118217
0.0105624
0.00940846
0.00834089
0.00734227
0.00639698
0.00549152
0.00461461
0.00375728
0.00291275
0.00207618
0.00124422
0.000414524
0.0633859
0.189452
0.313321
0.433315
0.547511
0.653755
0.749795
0.833469
0.902931
0.956865
0.994618
1.01625
1.0225
1.01465
0.994392
0.963686
0.924591
0.879164
0.829355
0.776934
0.723443
0.670166
0.618124
0.568087
0.520602
0.476022
0.43454
0.396217
0.36101
0.328794
0.299388
0.272573
0.248116
0.225785
0.205362
0.186652
0.169487
0.153721
0.139236
0.125933
0.113731
0.102562
0.0923645
0.0830834
0.0746634
0.0670481
0.0601788
0.0539945
0.0484325
0.0434292
0.038921
0.0348447
0.0311385
0.0277427
0.0246011
0.0216618
0.0188784
0.0162108
0.0136258
0.0110969
0.00860426
0.006134
0.00367671
0.00122518
0.104098
0.311202
0.514878
0.712435
0.900712
1.07609
1.23473
1.37291
1.48744
1.57606
1.63765
1.67236
1.68147
1.66722
1.6325
1.58061
1.51504
1.43922
1.35639
1.26949
1.18107
1.09321
1.00759
0.925422
0.847588
0.774634
0.706849
0.644312
0.58693
0.534481
0.486651
0.443064
0.403327
0.367048
0.333867
0.303461
0.275554
0.249913
0.226345
0.204693
0.184828
0.166641
0.150038
0.134931
0.12123
0.108846
0.0976811
0.0876362
0.0786083
0.0704929
0.0631853
0.0565818
0.0505806
0.0450836
0.0399977
0.0352376
0.0307266
0.0263991
0.0222005
0.0180881
0.01403
0.0100046
0.00599879
0.00199976
0.143789
0.429998
0.711852
0.985773
1.24739
1.49154
1.71262
1.90513
2.06433
2.18687
2.27116
2.31748
2.3278
2.30541
2.25457
2.18004
2.08677
1.97964
1.86321
1.74158
1.6183
1.49623
1.37763
1.26414
1.15691
1.05662
0.96363
0.877999
0.799565
0.727987
0.662795
0.603444
0.549363
0.499997
0.454838
0.413438
0.37542
0.340468
0.308323
0.278776
0.251657
0.226826
0.204159
0.18354
0.164853
0.147974
0.132771
0.119105
0.106835
0.0958157
0.0859028
0.0769529
0.0688249
0.0613826
0.0544967
0.0480479
0.0419302
0.0360526
0.0303406
0.024736
0.0191964
0.0136935
0.00821396
0.00273964
0.182617
0.546354
0.905228
1.25495
1.58996
1.90342
2.18769
2.43514
2.63918
2.79517
2.901
2.95718
2.96655
2.93372
2.86444
2.76512
2.64229
2.50232
2.35116
2.19409
2.03564
1.87944
1.72827
1.58412
1.44832
1.32167
1.20454
1.09693
0.998576
0.909
0.827551
0.753486
0.686039
0.624479
0.568147
0.516474
0.468986
0.425293
0.385078
0.348089
0.314122
0.283013
0.25462
0.228805
0.205428
0.184333
0.165355
0.148317
0.133038
0.119333
0.10702
0.0959146
0.0858391
0.0766182
0.0680861
0.0600894
0.0524924
0.0451794
0.0380564
0.0310519
0.0241142
0.0172094
0.0103276
0.00344661
0.22062
0.660437
1.09544
1.52086
1.93001
2.31418
2.66329
2.9671
3.21669
3.40589
3.53202
3.596
3.6018
3.55563
3.46504
3.33823
3.18344
3.00864
2.82119
2.62764
2.43346
2.243
2.05953
1.88528
1.72171
1.56965
1.42941
1.30093
1.18382
1.07741
0.980841
0.893148
0.813343
0.740502
0.673813
0.612591
0.556273
0.504403
0.456617
0.412627
0.372207
0.335178
0.301387
0.270685
0.242911
0.217881
0.195395
0.175238
0.157187
0.14102
0.126516
0.113454
0.101616
0.0907907
0.0807726
0.0713741
0.0624289
0.0537969
0.0453661
0.0370525
0.0287979
0.0205635
0.0123468
0.00412299
0.257722
0.772079
1.2824
1.78377
2.26841
2.72552
3.14207
3.50447
3.80091
4.02327
4.16833
4.23766
4.23677
4.17385
4.05856
3.90108
3.71152
3.49952
3.27393
3.04256
2.81192
2.587
2.37143
2.16763
1.97708
1.80053
1.63825
1.49002
1.35532
1.23326
1.12275
1.02254
0.931406
0.848207
0.771976
0.701918
0.637396
0.577901
0.523027
0.47246
0.425963
0.383353
0.344479
0.309189
0.277306
0.248621
0.222893
0.199869
0.179285
0.160881
0.144398
0.12958
0.116171
0.103918
0.0925779
0.0819263
0.0717655
0.0619311
0.0522937
0.0427592
0.0332647
0.0237685
0.0142793
0.00477145
0.293738
0.880791
1.46552
2.04327
2.60534
3.13851
3.62609
4.05027
4.39541
4.65106
4.81346
4.88524
4.87399
4.79039
4.64654
4.45486
4.22739
3.97552
3.70967
3.43902
3.17107
2.91145
2.66402
2.43125
2.21451
2.01445
1.83116
1.66432
1.51321
1.37672
1.25347
1.1419
1.04048
0.947842
0.862869
0.784671
0.712549
0.645956
0.584455
0.527715
0.475493
0.427619
0.383958
0.344366
0.308655
0.276588
0.247885
0.222245
0.199366
0.178947
0.160696
0.144321
0.129531
0.116031
0.103536
0.0917804
0.0805362
0.069614
0.0588684
0.0481969
0.0375346
0.0268387
0.0161338
0.00539482
0.328378
0.985778
1.64372
2.29838
2.94031
3.55361
4.11701
4.60717
5.00351
5.29266
5.47047
5.54124
5.51536
5.40662
5.22999
5.00027
4.73152
4.4369
4.12851
3.81697
3.51086
3.21633
2.93736
2.67627
2.43421
2.2116
2.00838
1.82406
1.65774
1.50807
1.37333
1.25156
1.14091
1.03974
0.946802
0.861125
0.781979
0.708789
0.641099
0.578562
0.520941
0.468091
0.419915
0.376291
0.337026
0.301848
0.270431
0.242425
0.217482
0.195267
0.175453
0.15772
0.141739
0.127172
0.113688
0.100979
0.0887808
0.0768823
0.0651224
0.0533927
0.0416288
0.0297891
0.0179188
0.00599584
0.361257
1.08596
1.81545
2.54748
3.27222
3.97075
4.61609
5.17767
5.62837
5.95123
6.14205
6.20765
6.16221
6.02339
5.80942
5.53763
5.22408
4.8837
4.53032
4.17623
3.83112
3.5016
3.19154
2.9029
2.63645
2.39231
2.17022
1.96955
1.78923
1.62766
1.48271
1.35195
1.23311
1.1243
1.02414
0.931605
0.845973
0.766658
0.693188
0.625204
0.562477
0.504908
0.452463
0.405062
0.362507
0.324486
0.290615
0.260487
0.233707
0.209903
0.188726
0.169826
0.152842
0.137391
0.123084
0.109568
0.0965438
0.0837757
0.0710903
0.0583754
0.0455692
0.0326344
0.0196425
0.00657706
0.391902
1.17999
1.97873
2.78839
3.59932
4.38932
5.12433
5.76423
6.27321
6.62986
6.83059
6.88601
6.81533
6.641
6.38491
6.06695
5.70506
5.31579
4.91485
4.51647
4.13163
3.76722
3.4267
3.11143
2.82161
2.55698
2.31708
2.10116
1.90805
1.73588
1.58206
1.44356
1.31759
1.20199
1.09527
0.996459
0.90484
0.819843
0.740978
0.667868
0.600295
0.538226
0.481727
0.430787
0.385201
0.344603
0.308535
0.276524
0.248123
0.222931
0.200578
0.180696
0.162895
0.14674
0.13178
0.117602
0.103872
0.0903357
0.0768077
0.0631742
0.0493781
0.0353892
0.0213125
0.00714052
0.419776
1.26631
2.13117
3.01835
3.91921
4.80819
5.64253
6.36944
6.94137
7.33156
7.53818
7.57738
7.47495
7.25927
6.95618
6.588
6.17428
5.73295
5.28171
4.83727
4.41212
4.01316
3.64305
3.30225
2.99018
2.70611
2.44942
2.21933
2.0146
1.83318
1.67191
1.52694
1.39487
1.27327
1.16064
1.05605
0.958902
0.868636
0.784738
0.7068
0.634604
0.568208
0.507836
0.453579
0.40522
0.362311
0.324303
0.290642
0.260826
0.234432
0.211078
0.19039
0.171954
0.155279
0.139831
0.125133
0.110815
0.0966044
0.0823101
0.0678184
0.0530773
0.0380669
0.0229346
0.00768761
0.444291
1.34318
2.27005
3.23403
4.22879
5.22565
6.17129
6.99612
7.63654
8.05936
8.26663
8.28232
8.14077
7.87755
7.52262
7.10037
6.63155
6.13495
5.63046
5.13809
4.67227
4.23945
3.8409
3.47585
3.14273
2.84026
2.56777
2.32449
2.10929
1.92001
1.75279
1.6027
1.46554
1.33869
1.22067
1.11075
1.00848
0.913334
0.824748
0.74226
0.665624
0.59502
0.530917
0.473555
0.422682
0.377731
0.338041
0.302955
0.271918
0.244493
0.220297
0.198964
0.180074
0.163067
0.147301
0.132218
0.11742
0.102623
0.0876321
0.072337
0.0566882
0.0406794
0.024513
0.00821877
0.46484
1.40878
2.39236
3.43159
4.52424
5.63935
6.71111
7.64757
8.36284
8.81631
9.0174
9.00093
8.81191
8.49475
8.08335
7.60352
7.07671
6.52161
5.96054
5.41827
4.91174
4.44616
4.02064
3.63286
3.27996
2.96009
2.67269
2.41714
2.19253
1.99682
1.82531
1.6715
1.53021
1.39875
1.2758
1.1609
1.05388
0.95423
0.86129
0.77452
0.693587
0.618826
0.551087
0.490826
0.437709
0.390993
0.349878
0.313588
0.281506
0.253202
0.228305
0.206476
0.187309
0.170166
0.154253
0.138915
0.123736
0.108431
0.0928063
0.0767582
0.0602318
0.0432366
0.0260491
0.00873327
0.480826
1.46126
2.49492
3.60671
4.80096
6.04618
7.26233
8.32774
9.1251
9.60545
9.79162
9.73275
9.48685
9.10934
8.63728
8.09685
7.50973
6.89294
6.27135
5.67699
5.13015
4.6335
4.18279
3.774
3.40267
3.0663
2.76481
2.49775
2.26466
2.06403
1.89008
1.73406
1.58953
1.45399
1.32644
1.20682
1.0954
0.991609
0.894644
0.803865
0.718736
0.639779
0.568446
0.505498
0.450427
0.40223
0.359953
0.322669
0.2897
0.260652
0.235171
0.212972
0.193706
0.176638
0.160754
0.145278
0.129807
0.114065
0.0978627
0.0811095
0.0637289
0.0457462
0.0275411
0.0092289
0.491697
1.49886
2.57452
3.75467
5.05354
6.4421
7.82509
9.04156
9.92901
10.4296
10.5899
10.4768
10.1634
9.71944
9.18318
8.57966
7.93085
7.24919
6.56216
5.91316
5.32717
4.80179
4.32794
3.90012
3.51175
3.15963
2.84476
2.56681
2.32598
2.122
1.9478
1.79118
1.64414
1.50493
1.37301
1.24881
1.1333
1.02575
0.925084
0.830597
0.741331
0.658018
0.583066
0.51767
0.460966
0.411578
0.36841
0.330336
0.296611
0.266934
0.240963
0.218492
0.199306
0.182549
0.166875
0.151364
0.135677
0.119558
0.102827
0.0854186
0.0672018
0.0482133
0.0289831
0.00970159
0.496986
1.51999
2.62805
3.87052
5.27567
6.82193
8.39926
9.79533
10.7814
11.2914
11.4125
11.2317
10.8386
10.3228
9.71976
9.05116
8.34069
7.59104
6.83204
6.12541
5.50249
4.95161
4.45682
4.01221
3.60825
3.24084
2.91326
2.62484
2.37667
2.17101
1.9992
1.84375
1.69468
1.55208
1.41587
1.28708
1.16783
1.05691
0.952861
0.855035
0.761656
0.673656
0.594984
0.527432
0.469466
0.419175
0.375397
0.336728
0.302347
0.272143
0.245746
0.223062
0.204137
0.187968
0.172697
0.157222
0.141384
0.124941
0.10772
0.0897131
0.0706748
0.0506395
0.0303634
0.0101451
0.496338
1.52337
2.65265
3.94913
5.46019
7.17901
8.98417
10.5972
11.6907
12.1924
12.2588
11.9955
11.5086
10.9171
10.2459
9.51035
8.74037
7.9198
7.07977
6.31184
5.65591
5.0838
4.57015
4.11139
3.69331
3.31064
2.97102
2.67239
2.41674
2.21119
2.04513
1.89276
1.74175
1.59591
1.45541
1.32181
1.19921
1.08536
0.978199
0.87753
0.780032
0.686768
0.604184
0.534876
0.476079
0.425153
0.381071
0.341995
0.307008
0.276372
0.249588
0.22669
0.208214
0.192975
0.178306
0.162897
0.146962
0.130237
0.112553
0.0940225
0.0741776
0.0530225
0.0316638
0.0105502
0.489549
1.5081
2.64594
3.98553
5.59907
7.50487
9.57825
11.458
12.6672
13.1328
13.1277
12.7664
12.1683
11.4999
10.7606
9.95571
9.13173
8.23773
7.30366
6.46988
5.78748
5.19965
4.66861
4.19888
3.76826
3.36961
3.01886
2.7101
2.446
2.24248
2.08659
1.93939
1.78582
1.63687
1.49197
1.35303
1.22764
1.11136
1.00126
0.898473
0.796843
0.69738
0.610585
0.540095
0.480982
0.429635
0.385594
0.346294
0.310681
0.27972
0.252561
0.229361
0.21153
0.19766
0.183805
0.16842
0.152438
0.135472
0.117327
0.0983796
0.0777481
0.0553543
0.032857
0.0109046
0.476579
1.47377
2.60614
3.97506
5.68354
7.78879
10.1784
12.3921
13.724
14.1098
14.0175
13.5427
12.8107
12.0689
11.2637
10.3848
9.51757
8.54841
7.50119
6.59599
5.89768
5.30106
4.75264
4.2761
3.83465
3.41809
3.05768
2.73879
2.46398
2.26454
2.1248
1.98504
1.82721
1.67537
1.52596
1.38065
1.25333
1.1352
1.02211
0.918312
0.812565
0.705436
0.614013
0.543209
0.484388
0.432714
0.389138
0.349797
0.313425
0.282296
0.254751
0.231029
0.214047
0.20214
0.18932
0.173801
0.157839
0.140668
0.122023
0.102823
0.0814379
0.057619
0.0339046
0.0111919
0.457572
1.42048
2.53232
3.91371
5.70433
8.0173
10.7789
13.4186
14.8776
15.1165
14.9263
14.324
13.4265
12.6226
11.7559
10.7933
9.90196
8.85732
7.66862
6.68532
5.98769
5.39077
4.82214
4.34465
3.8944
3.45598
3.08852
2.75957
2.46979
2.27662
2.16136
2.03144
1.8659
1.71183
1.55784
1.40436
1.27651
1.15725
1.04064
0.937583
0.827811
0.710768
0.614175
0.544376
0.486567
0.434437
0.391888
0.352699
0.315258
0.284218
0.256268
0.231606
0.215688
0.206562
0.195004
0.179014
0.163186
0.145855
0.126598
0.1074
0.0853184
0.0597892
0.0347544
0.0113911
0.432849
1.34892
2.42443
3.79848
5.65197
8.17381
11.3699
14.5635
16.1495
16.1385
15.8523
15.1119
14.0024
13.1608
12.2399
11.1742
10.2908
9.17265
7.80033
6.73126
6.05986
5.47265
4.87602
4.40645
3.94991
3.4824
3.11271
2.77404
2.46199
2.27741
2.19835
2.08073
1.90131
1.7467
1.58827
1.42348
1.2975
1.17797
1.05649
0.956942
0.843399
0.713042
0.610627
0.543837
0.487867
0.43476
0.394054
0.355234
0.316127
0.285629
0.257266
0.230949
0.21632
0.211128
0.201054
0.183978
0.168508
0.151077
0.130965
0.112173
0.0894902
0.0618195
0.0353378
0.0114766
0.402902
1.26031
2.2835
3.62769
5.51738
8.23822
11.9355
15.8616
17.5677
17.1506
16.7953
15.912
14.5193
13.6855
12.721
11.5154
10.6922
9.50635
7.88796
6.72492
6.11824
5.55215
4.91148
4.46391
4.00438
3.49532
3.13192
2.78452
2.43842
2.26483
2.23861
2.1357
1.93204
1.78052
1.61817
1.43687
1.31675
1.19804
1.06888
0.977227
0.860435
0.711686
0.602731
0.541955
0.48875
0.433503
0.395889
0.357696
0.315872
0.286709
0.257964
0.228843
0.215733
0.216112
0.207728
0.188521
0.173847
0.156404
0.134975
0.117228
0.0940949
0.0636373
0.0355679
0.0114183
0.368363
1.15639
2.1116
3.40132
5.29258
8.18693
12.4499
17.3596
19.1694
18.1112
17.7582
16.7361
14.9491
14.2024
13.209
11.7974
11.1181
9.87549
7.91912
6.65453
6.16938
5.63682
4.92307
4.52026
4.06222
3.49084
3.14845
2.7944
2.39594
2.23576
2.28598
2.19992
1.95541
1.81413
1.64896
1.4426
1.33501
1.21843
1.0764
0.999533
0.880425
0.70579
0.589612
0.539282
0.489832
0.430262
0.397713
0.360471
0.314164
0.287694
0.258676
0.224979
0.213614
0.221891
0.215363
0.192343
0.179273
0.161953
0.138385
0.122684
0.0993298
0.0651296
0.0353384
0.0111829
0.329978
1.03934
1.91184
3.12126
4.97154
7.99319
12.8734
19.1199
21.0043
18.9553
18.7496
17.605
15.25
14.7228
13.7198
11.9897
11.5849
10.304
7.87579
6.50483
6.22331
5.73695
4.90129
4.57998
4.12952
3.46234
3.16549
2.80856
2.33013
2.18573
2.34569
2.27809
1.96684
1.84879
1.68277
1.43764
1.35342
1.24064
1.0767
1.02533
0.905414
0.693974
0.570105
0.536635
0.491939
0.424307
0.399954
0.364084
0.310436
0.288906
0.259853
0.218923
0.209512
0.228984
0.224411
0.194945
0.184912
0.167915
0.140815
0.12871
0.105467
0.0661231
0.0345253
0.0107365
0.288563
0.911621
1.68821
2.79152
4.55127
7.62824
13.1462
21.225
23.1392
19.5843
19.7885
18.5529
15.361
15.2664
14.2787
12.0454
12.1161
10.8247
7.73214
6.25635
6.29471
5.86648
4.83075
4.64959
4.21485
3.3993
3.1876
2.83385
2.2349
2.10846
2.4248
2.37641
1.9591
1.88658
1.72276
1.41734
1.37379
1.26682
1.06611
1.05663
0.938163
0.674209
0.542712
0.535191
0.496171
0.41443
0.403212
0.369259
0.303767
0.290793
0.262129
0.210085
0.202798
0.238091
0.235472
0.195556
0.190979
0.174587
0.141691
0.135552
0.112878
0.066358
0.0329921
0.010048
0.244963
0.775909
1.44546
2.41817
4.03292
7.06343
13.1807
23.7831
25.6643
19.8535
20.9092
19.6324
15.1934
15.8653
14.9232
11.8951
12.7444
11.4818
7.45185
5.88487
6.40424
6.04408
4.68774
4.73858
4.33012
3.28564
3.22131
2.87973
2.10207
1.99543
2.53271
2.50305
1.92123
1.93079
1.77352
1.37478
1.39887
1.30015
1.03908
1.0962
0.982346
0.643599
0.505557
0.536596
0.503997
0.39875
0.408338
0.376997
0.292747
0.293985
0.266374
0.197676
0.192615
0.250152
0.24935
0.193017
0.197826
0.182421
0.140166
0.143561
0.122057
0.0654524
0.0306003
0.00909514
0.200014
0.634924
1.1888
2.00926
3.42277
6.27377
12.8511
26.9345
28.7008
19.5558
22.1696
20.9204
14.6199
16.5684
15.7083
11.4378
13.516
12.334
6.9847
5.36096
6.58011
6.29445
4.43723
4.86082
4.49178
3.09772
3.27597
2.95886
1.92081
1.83528
2.68173
2.6688
1.8372
1.98656
1.8416
1.2999
1.43279
1.34515
0.987507
1.14786
1.04278
0.598103
0.456358
0.543086
0.517356
0.374472
0.41655
0.388675
0.275299
0.29937
0.273757
0.180664
0.177818
0.266403
0.267112
0.185645
0.20601
0.192079
0.135018
0.153238
0.133657
0.0628572
0.0272267
0.0078705
0.154504
0.49131
0.923634
1.57441
2.73303
5.24315
11.981
30.8586
32.4113
18.4017
23.6604
22.5254
13.4616
17.4485
16.7111
10.5312
14.4949
13.457
6.26255
4.64979
6.85955
6.65008
4.02907
5.03632
4.72217
2.80177
3.36486
3.08785
1.67706
1.61324
2.88779
2.88784
1.68433
2.06165
1.93603
1.17843
1.48153
1.40815
0.899895
1.21689
1.12569
0.532201
0.392419
0.557607
0.538792
0.337582
0.429576
0.406165
0.248453
0.308193
0.285806
0.157725
0.156909
0.28844
0.290175
0.171069
0.216372
0.204498
0.124532
0.165295
0.148521
0.0577988
0.022789
0.0063882
0.109148
0.347521
0.65528
1.12424
1.98208
3.97177
10.3282
35.7824
37.0116
15.9955
25.5182
24.5964
11.4717
18.6094
18.038
8.97853
15.7691
14.9472
5.19462
3.71129
7.29034
7.1532
3.39347
5.29348
5.05109
2.35088
3.50666
3.28785
1.3529
1.31044
3.171
3.17867
1.43127
2.16746
2.06907
0.990558
1.55359
1.4978
0.760326
1.3105
1.23892
0.43851
0.310659
0.583935
0.571623
0.282484
0.449834
0.431969
0.208081
0.322182
0.304476
0.127186
0.127968
0.318288
0.3204
0.146016
0.230147
0.220973
0.106345
0.180722
0.167718
0.0492111
0.0172817
0.00468929
0.0645639
0.205735
0.388685
0.669735
1.19399
2.48604
7.56707
41.9886
42.786
11.8065
27.9406
27.3312
8.31618
20.1962
19.8317
6.51384
17.4583
16.9243
3.66218
2.50088
7.93204
7.85828
2.43577
5.67185
5.51758
1.68133
3.72725
3.58521
0.925923
0.903222
3.55638
3.56529
1.03574
2.32024
2.25688
0.709424
1.66076
1.62568
0.547255
1.43846
1.39227
0.307338
0.207676
0.626768
0.620133
0.201574
0.480658
0.469383
0.14858
0.343709
0.332196
0.0869727
0.0885765
0.358468
0.360216
0.106077
0.249089
0.243244
0.077268
0.200887
0.192583
0.0356541
0.0108212
0.00284366
0.0212661
0.0677932
0.128198
0.221356
0.396964
0.851075
3.26795
49.8242
50.1043
5.13723
31.2036
30.9869
3.55205
22.4058
22.2793
2.78532
19.7225
19.5346
1.51266
0.970706
8.8569
8.83491
1.03047
6.22535
6.17183
0.70852
4.06188
4.01188
0.368567
0.362544
4.0744
4.07852
0.441898
2.54254
2.52038
0.299321
1.81901
1.80695
0.232155
1.61382
1.59763
0.126203
0.0798697
0.691796
0.68981
0.0847635
0.52655
0.52266
0.0625143
0.375977
0.371917
0.0345644
0.0357406
0.41205
0.412758
0.0454338
0.27562
0.27359
0.0330913
0.227638
0.224752
0.015222
0.0037022
0.000945636
)
;

boundaryField
{
    left
    {
        type            calculated;
        value           uniform 0;
    }
    right
    {
        type            calculated;
        value           uniform 0;
    }
    interface
    {
        type            calculated;
        value           nonuniform List<scalar> 
64
(
0.0212661
0.0677932
0.128198
0.221356
0.396964
0.851075
3.26795
49.8242
50.1043
5.13723
31.2036
30.9869
3.55205
22.4058
22.2793
2.78532
19.7225
19.5346
1.51266
0.970706
8.8569
8.83491
1.03047
6.22535
6.17183
0.70852
4.06188
4.01188
0.368567
0.362544
4.0744
4.07852
0.441898
2.54254
2.52038
0.299321
1.81901
1.80695
0.232155
1.61382
1.59763
0.126203
0.0798697
0.691796
0.68981
0.0847635
0.52655
0.52266
0.0625143
0.375977
0.371917
0.0345644
0.0357406
0.41205
0.412758
0.0454338
0.27562
0.27359
0.0330913
0.227638
0.224752
0.015222
0.0037022
0.000945636
)
;
    }
    bottom
    {
        type            calculated;
        value           nonuniform List<scalar> 
64
(
0.0213725
0.0638726
0.105612
0.146021
0.184449
0.220179
0.252466
0.280601
0.303976
0.32216
0.334935
0.342319
0.344551
0.342051
0.335381
0.325186
0.312153
0.29697
0.280287
0.2627
0.244728
0.226803
0.209272
0.192399
0.176371
0.16131
0.147285
0.134318
0.122398
0.111484
0.101517
0.0924244
0.0841298
0.0765556
0.069629
0.0632842
0.057464
0.0521197
0.0472105
0.0427029
0.0385689
0.0347849
0.0313301
0.0281854
0.0253319
0.0227504
0.020421
0.0183231
0.0164357
0.0147373
0.0132064
0.0118217
0.0105624
0.00940846
0.00834089
0.00734227
0.00639698
0.00549152
0.00461461
0.00375728
0.00291275
0.00207618
0.00124422
0.000414524
)
;
    }
    defaultFaces
    {
        type            empty;
    }
}


// ************************************************************************* //
