/*--------------------------------*- C++ -*----------------------------------*\
| =========                 |                                                 |
| \\      /  F ield         | OpenFOAM: The Open Source CFD Toolbox           |
|  \\    /   O peration     | Version:  5.x                                   |
|   \\  /    A nd           | Web:      www.OpenFOAM.org                      |
|    \\/     M anipulation  |                                                 |
\*---------------------------------------------------------------------------*/
FoamFile
{
    version     2.0;
    format      ascii;
    class       volScalarField;
    location    "4";
    object      gradTy;
}
// * * * * * * * * * * * * * * * * * * * * * * * * * * * * * * * * * * * * * //

dimensions      [0 -1 0 1 0 0 0];

internalField   nonuniform List<scalar> 
2048
(
-20.6104
-20.5172
-20.3319
-20.0566
-19.6949
-19.2518
-18.734
-18.1498
-17.5091
-16.8228
-16.1028
-15.3609
-14.609
-13.8579
-13.1173
-12.3958
-11.7002
-11.036
-10.4071
-9.81599
-9.26404
-8.75152
-8.27786
-7.84183
-7.44174
-7.07554
-6.74102
-6.43586
-6.15773
-5.90438
-5.67367
-5.46361
-5.27237
-5.09832
-4.93997
-4.79598
-4.66517
-4.54646
-4.43886
-4.34148
-4.25346
-4.17403
-4.10245
-4.03804
-3.98012
-3.9281
-3.88139
-3.83948
-3.80188
-3.76816
-3.73793
-3.71085
-3.68663
-3.66501
-3.64578
-3.62879
-3.61389
-3.601
-3.59003
-3.58094
-3.5737
-3.56828
-3.56467
-3.56287
-20.6857
-20.5917
-20.4046
-20.1264
-19.7607
-19.3122
-18.7876
-18.1955
-17.5458
-16.85
-16.1203
-15.369
-14.6083
-13.8492
-13.1018
-12.3747
-11.6747
-11.0073
-10.3763
-9.78417
-9.23199
-8.71992
-8.24724
-7.81259
-7.41413
-7.04973
-6.71708
-6.41379
-6.13748
-5.88585
-5.65675
-5.44816
-5.25825
-5.0854
-4.92812
-4.7851
-4.65516
-4.53724
-4.43037
-4.33366
-4.24627
-4.16744
-4.09642
-4.03253
-3.97511
-3.92355
-3.87727
-3.83575
-3.7985
-3.76509
-3.73514
-3.70829
-3.68427
-3.66281
-3.64372
-3.62684
-3.61202
-3.59919
-3.58826
-3.5792
-3.57197
-3.56656
-3.56296
-3.56116
-20.8289
-20.7333
-20.5429
-20.2595
-19.8861
-19.4274
-18.89
-18.2826
-17.6158
-16.9017
-16.1533
-15.3839
-14.6062
-13.832
-13.0716
-12.3338
-11.6256
-10.9522
-10.3174
-9.72334
-9.17083
-8.65973
-8.18902
-7.75706
-7.36177
-7.00084
-6.67178
-6.37207
-6.09923
-5.8509
-5.62484
-5.41903
-5.23164
-5.06104
-4.90577
-4.76456
-4.63626
-4.51984
-4.41434
-4.31889
-4.2327
-4.15499
-4.08503
-4.02214
-3.96566
-3.91496
-3.86949
-3.8287
-3.79212
-3.7593
-3.72987
-3.70347
-3.67983
-3.65869
-3.63985
-3.62316
-3.6085
-3.59577
-3.58491
-3.5759
-3.5687
-3.56331
-3.55972
-3.55792
-21.0319
-20.9342
-20.7395
-20.4489
-20.065
-19.5919
-19.0362
-18.4069
-17.7153
-16.9747
-16.1993
-15.4037
-14.6017
-13.8058
-13.027
-12.2742
-11.5544
-10.8728
-10.2328
-9.63627
-9.08357
-8.5741
-8.10639
-7.67841
-7.28778
-6.93186
-6.60796
-6.31339
-6.04552
-5.80186
-5.58012
-5.37824
-5.19438
-5.02693
-4.87448
-4.7358
-4.60977
-4.49542
-4.39184
-4.29817
-4.21364
-4.13751
-4.06904
-4.00755
-3.95239
-3.90293
-3.85859
-3.81884
-3.7832
-3.75121
-3.72251
-3.69675
-3.67364
-3.65293
-3.63445
-3.61803
-3.60357
-3.59098
-3.58023
-3.57127
-3.56411
-3.55874
-3.55516
-3.55336
-21.2877
-21.1878
-20.9881
-20.6891
-20.2923
-19.8014
-19.2226
-18.5651
-17.8415
-17.0664
-16.2561
-15.4267
-14.5935
-13.7701
-12.9679
-12.1962
-11.4621
-10.7704
-10.1244
-9.52516
-8.97266
-8.46565
-8.00209
-7.57945
-7.19489
-6.84548
-6.52823
-6.24022
-5.97866
-5.74092
-5.52462
-5.32765
-5.14817
-4.98463
-4.83566
-4.70008
-4.57687
-4.46508
-4.36385
-4.27238
-4.18992
-4.11574
-4.04913
-3.98941
-3.9359
-3.88799
-3.84508
-3.80662
-3.77214
-3.7412
-3.71341
-3.68844
-3.66599
-3.64583
-3.62777
-3.61168
-3.59746
-3.58504
-3.5744
-3.56552
-3.55839
-3.55304
-3.54946
-3.54767
-21.5901
-21.488
-21.2832
-20.9752
-20.5641
-20.0526
-19.4461
-18.7546
-17.9918
-17.1745
-16.3214
-15.4509
-14.58
-13.7235
-12.8936
-12.0998
-11.3491
-10.6461
-9.99347
-9.39178
-8.84019
-8.3367
-7.87856
-7.46263
-7.0856
-6.74411
-6.4349
-6.15479
-5.90077
-5.67007
-5.46019
-5.26897
-5.09461
-4.93557
-4.79061
-4.65861
-4.53862
-4.42977
-4.33126
-4.24233
-4.16227
-4.09037
-4.02594
-3.96828
-3.91672
-3.87062
-3.82938
-3.79245
-3.75935
-3.72962
-3.7029
-3.67884
-3.65716
-3.63763
-3.62007
-3.60435
-3.59039
-3.57816
-3.56763
-3.55881
-3.55171
-3.54637
-3.5428
-3.541
-21.9333
-21.8293
-21.62
-21.3032
-20.8772
-20.3428
-19.7048
-18.9734
-18.1642
-17.2968
-16.3931
-15.4742
-14.5594
-13.6649
-12.8035
-11.9849
-11.2158
-10.5006
-9.84127
-9.23764
-8.68797
-8.18928
-7.73799
-7.33023
-6.96214
-6.62997
-6.33012
-6.05914
-5.81381
-5.59115
-5.38854
-5.20379
-5.03511
-4.88106
-4.7405
-4.61244
-4.49599
-4.39038
-4.29486
-4.20874
-4.13134
-4.06199
-4
-3.94468
-3.89532
-3.85128
-3.81193
-3.77671
-3.74515
-3.71679
-3.69127
-3.66823
-3.64741
-3.62857
-3.61155
-3.59623
-3.58255
-3.5705
-3.56007
-3.55131
-3.54423
-3.53889
-3.53531
-3.53351
-22.3117
-22.2067
-21.994
-21.6695
-21.2289
-20.6704
-19.9973
-19.2202
-18.3571
-17.4313
-16.4688
-15.4945
-14.5299
-13.5929
-12.6966
-11.8509
-11.0623
-10.3344
-9.6687
-9.06408
-8.51765
-8.02529
-7.58239
-7.1843
-6.82658
-6.50506
-6.21582
-5.95514
-5.71954
-5.50583
-5.31125
-5.13354
-4.97098
-4.82227
-4.68639
-4.5625
-4.44984
-4.34768
-4.25536
-4.17224
-4.09772
-4.03113
-3.97182
-3.91907
-3.87214
-3.83035
-3.79307
-3.75974
-3.72986
-3.703
-3.67878
-3.65686
-3.63697
-3.61888
-3.60242
-3.58751
-3.57411
-3.56223
-3.55189
-3.54316
-3.53608
-3.53073
-3.52714
-3.52531
-22.7201
-22.6151
-22.4012
-22.0712
-21.6172
-21.0341
-20.3229
-19.4942
-18.5691
-17.5762
-16.5466
-15.5095
-14.4896
-13.5059
-12.5721
-11.6976
-10.8885
-10.148
-9.4766
-8.87231
-8.33078
-7.8465
-7.41367
-7.02679
-6.68082
-6.37121
-6.09375
-5.84445
-5.61957
-5.41565
-5.22973
-5.05951
-4.90338
-4.76022
-4.62921
-4.50965
-4.40091
-4.30235
-4.21337
-4.13341
-4.0619
-3.99827
-3.94183
-3.89185
-3.84755
-3.8082
-3.77315
-3.74183
-3.71375
-3.68849
-3.66567
-3.64495
-3.62605
-3.60873
-3.59286
-3.57836
-3.56522
-3.55348
-3.54321
-3.53448
-3.52739
-3.52199
-3.51838
-3.51654
-23.153
-23.0498
-22.8374
-22.5053
-22.0408
-21.4337
-20.6816
-19.7952
-18.7993
-17.7295
-16.6239
-15.5169
-14.4365
-13.4026
-12.429
-11.5245
-10.6945
-9.94165
-9.26573
-8.66347
-8.12884
-7.65462
-7.23365
-6.85951
-6.52661
-6.2301
-5.96551
-5.72861
-5.51536
-5.32199
-5.14529
-4.98289
-4.83336
-4.69584
-4.56976
-4.45461
-4.34987
-4.25499
-4.16943
-4.09271
-4.02434
-3.96379
-3.91041
-3.86339
-3.82189
-3.78514
-3.75245
-3.72325
-3.69707
-3.67349
-3.65214
-3.63268
-3.61482
-3.59831
-3.58303
-3.56892
-3.55601
-3.54439
-3.53414
-3.52539
-3.51824
-3.5128
-3.50914
-3.50728
-23.6053
-23.5058
-23.2988
-22.9693
-22.4985
-21.8693
-21.0742
-20.1233
-19.0467
-17.8894
-16.6983
-15.5143
-14.3684
-13.2815
-12.2666
-11.3314
-10.4805
-9.71588
-9.0368
-8.43868
-7.91333
-7.45134
-7.04408
-6.68418
-6.36559
-6.08324
-5.83252
-5.60896
-5.40824
-5.22615
-5.05912
-4.90475
-4.76184
-4.62993
-4.50874
-4.398
-4.29729
-4.20612
-4.12403
-4.05058
-3.9854
-3.92805
-3.87788
-3.834
-3.79548
-3.76146
-3.73124
-3.70425
-3.68003
-3.65819
-3.63837
-3.62023
-3.60345
-3.58777
-3.57305
-3.55931
-3.5466
-3.53505
-3.5248
-3.51598
-3.50874
-3.50322
-3.49951
-3.49762
-24.0714
-23.9784
-23.7815
-23.4608
-22.9896
-22.3417
-21.5022
-20.4793
-19.3105
-18.0537
-16.7672
-15.4989
-14.2834
-13.1414
-12.0842
-11.1183
-10.2467
-9.47101
-8.79047
-8.19905
-7.68573
-7.23837
-6.84668
-6.50246
-6.19925
-5.932
-5.69605
-5.48672
-5.29938
-5.12929
-4.97233
-4.82602
-4.68962
-4.56315
-4.44674
-4.34035
-4.24367
-4.15621
-4.07757
-4.00738
-3.9454
-3.89133
-3.84452
-3.80397
-3.76857
-3.73741
-3.70975
-3.68502
-3.66281
-3.64276
-3.62452
-3.60775
-3.59208
-3.57723
-3.56307
-3.54965
-3.53709
-3.52557
-3.51525
-3.50633
-3.49896
-3.49333
-3.48956
-3.48764
-24.546
-24.4623
-24.2815
-23.9773
-23.5137
-22.8526
-21.9681
-20.8648
-19.59
-18.2199
-16.8275
-15.468
-14.1794
-12.9813
-11.8817
-10.8852
-9.99343
-9.20741
-8.52732
-7.9457
-7.44762
-7.0174
-6.64315
-6.31591
-6.02897
-5.77761
-5.55722
-5.36293
-5.18985
-5.0325
-4.88593
-4.74755
-4.61737
-4.49609
-4.38424
-4.28212
-4.18944
-4.10566
-4.03041
-3.96343
-3.9046
-3.85386
-3.81059
-3.77355
-3.74143
-3.71323
-3.68818
-3.66574
-3.64557
-3.62734
-3.61072
-3.59536
-3.58085
-3.56684
-3.55319
-3.54004
-3.52757
-3.51602
-3.50559
-3.4965
-3.48897
-3.4832
-3.47935
-3.47741
-25.0235
-24.9527
-24.7945
-24.5162
-24.0706
-23.4042
-22.4751
-21.2818
-19.8841
-18.3853
-16.8758
-15.4184
-14.0544
-12.8003
-11.6589
-10.6328
-9.72132
-8.92537
-8.2478
-7.67976
-7.20067
-6.79017
-6.43514
-6.12602
-5.85599
-5.62112
-5.41698
-5.23847
-5.08055
-4.93678
-4.80088
-4.67011
-4.54567
-4.42919
-4.32163
-4.22368
-4.13497
-4.0548
-3.98289
-3.919
-3.8632
-3.81583
-3.77628
-3.74297
-3.71427
-3.68911
-3.66671
-3.64657
-3.62844
-3.61204
-3.59706
-3.58317
-3.56987
-3.55669
-3.5435
-3.53055
-3.51812
-3.50647
-3.49587
-3.48658
-3.47881
-3.47288
-3.46896
-3.467
-25.4986
-25.4442
-25.3161
-25.0748
-24.6603
-23.9994
-23.0281
-21.7333
-20.1915
-18.5462
-16.9088
-15.3468
-13.9066
-12.5981
-11.416
-10.3617
-9.43122
-8.62505
-7.95217
-7.40241
-6.9467
-6.55847
-6.22428
-5.93426
-5.68141
-5.46346
-5.27618
-5.11406
-4.9723
-4.84313
-4.71813
-4.59433
-4.47497
-4.36283
-4.2592
-4.16531
-4.08059
-4.00395
-3.93529
-3.87434
-3.82136
-3.77736
-3.74177
-3.71244
-3.68729
-3.66524
-3.64551
-3.62763
-3.61152
-3.59696
-3.58364
-3.57127
-3.55925
-3.54691
-3.53409
-3.52125
-3.50878
-3.49697
-3.48616
-3.4766
-3.46855
-3.46242
-3.45843
-3.45646
-25.9659
-25.9318
-25.8418
-25.6499
-25.2823
-24.6418
-23.6332
-22.2232
-20.51
-18.6982
-16.9225
-15.2498
-13.7341
-12.3749
-11.1535
-10.0731
-9.1244
-8.30636
-7.64038
-7.1149
-6.68781
-6.32405
-6.01213
-5.74201
-5.50615
-5.30538
-5.13551
-4.9902
-4.86574
-4.7525
-4.63864
-4.52073
-4.40558
-4.29729
-4.19714
-4.10726
-4.02661
-3.95337
-3.88787
-3.82968
-3.77915
-3.7385
-3.70723
-3.68219
-3.66069
-3.6418
-3.62474
-3.60902
-3.5949
-3.58218
-3.57051
-3.55974
-3.5491
-3.53759
-3.52502
-3.5122
-3.49963
-3.48759
-3.47651
-3.46663
-3.45821
-3.45186
-3.4478
-3.44586
-26.4203
-26.4102
-26.3666
-26.2379
-25.936
-25.3354
-24.2982
-22.7569
-20.8359
-18.836
-16.9134
-15.1232
-13.5353
-12.1316
-10.872
-9.76866
-8.80271
-7.96876
-7.31186
-6.81864
-6.42647
-6.0886
-5.80015
-5.5507
-5.33092
-5.14748
-4.99564
-4.86721
-4.76135
-4.66589
-4.56342
-4.4497
-4.33769
-4.2328
-4.13551
-4.0497
-3.97333
-3.90326
-3.84089
-3.78525
-3.7366
-3.69928
-3.67278
-3.65244
-3.63463
-3.61893
-3.60452
-3.59083
-3.57864
-3.56776
-3.5577
-3.54862
-3.53952
-3.52885
-3.51635
-3.50344
-3.49071
-3.47835
-3.46696
-3.45672
-3.44782
-3.4412
-3.43713
-3.43524
-26.8568
-26.8745
-26.8855
-26.8345
-26.6201
-26.0847
-25.0334
-23.3421
-21.1633
-18.9527
-16.8786
-14.9623
-13.3089
-11.8705
-10.572
-9.45033
-8.46892
-7.61098
-6.96541
-6.51532
-6.16572
-5.85363
-5.58968
-5.36182
-5.15613
-4.99019
-4.85721
-4.7451
-4.65942
-4.5844
-4.49365
-4.38139
-4.27133
-4.16958
-4.07428
-3.99275
-3.92109
-3.85379
-3.79458
-3.74134
-3.69363
-3.65959
-3.63859
-3.62345
-3.60925
-3.59675
-3.585
-3.5731
-3.5628
-3.55376
-3.54522
-3.53796
-3.53062
-3.52081
-3.5081
-3.49498
-3.48206
-3.46927
-3.45757
-3.44693
-3.43741
-3.43048
-3.42645
-3.42468
-27.2713
-27.3197
-27.3929
-27.4346
-27.3324
-26.8943
-25.8516
-23.9895
-21.4824
-19.0398
-16.8169
-14.7612
-13.0536
-11.5953
-10.2532
-9.12052
-8.12732
-7.23055
-6.59885
-6.20705
-5.90949
-5.62019
-5.38185
-5.17712
-4.98179
-4.8338
-4.72101
-4.62353
-4.56001
-4.50924
-4.43074
-4.31564
-4.20635
-4.10792
-4.01322
-3.93647
-3.8703
-3.80499
-3.74918
-3.69832
-3.65006
-3.61925
-3.60479
-3.59551
-3.58464
-3.57538
-3.56632
-3.55582
-3.54739
-3.54026
-3.53303
-3.52775
-3.52253
-3.5136
-3.50025
-3.48681
-3.47374
-3.46036
-3.44837
-3.43734
-3.42696
-3.41967
-3.41579
-3.41423
-27.6597
-27.7413
-27.8836
-28.0323
-28.0692
-27.7682
-26.769
-24.7145
-21.7773
-19.0871
-16.7302
-14.5115
-12.7684
-11.3129
-9.91374
-8.78203
-7.78453
-6.82311
-6.2088
-5.8966
-5.66294
-5.38853
-5.17752
-4.99886
-4.80727
-4.67841
-4.5882
-4.50169
-4.46283
-4.44189
-4.37656
-4.25181
-4.14241
-4.0483
-3.95186
-3.88089
-3.82155
-3.75673
-3.70493
-3.6567
-3.60549
-3.57797
-3.57159
-3.56902
-3.56082
-3.55489
-3.54868
-3.53893
-3.53243
-3.52734
-3.52102
-3.51795
-3.51538
-3.50742
-3.49274
-3.47893
-3.46581
-3.4516
-3.4394
-3.42802
-3.41645
-3.40876
-3.40517
-3.40394
-28.0189
-28.1355
-28.352
-28.6209
-28.8249
-28.7092
-27.8051
-25.5405
-22.0227
-19.0824
-16.6262
-14.2013
-12.4522
-11.0339
-9.54894
-8.43799
-7.45099
-6.38127
-5.79031
-5.58775
-5.43312
-5.15746
-4.97722
-4.83025
-4.63093
-4.52397
-4.46056
-4.37799
-4.36718
-4.38411
-4.33364
-4.18847
-4.07895
-3.99159
-3.88934
-3.82595
-3.77571
-3.70862
-3.66204
-3.61732
-3.55929
-3.53529
-3.53925
-3.54451
-3.53768
-3.53531
-3.53232
-3.52227
-3.51788
-3.51514
-3.50905
-3.50848
-3.50933
-3.50249
-3.48542
-3.47126
-3.45837
-3.44289
-3.43068
-3.41911
-3.4058
-3.39768
-3.39464
-3.39388
-28.3463
-28.4987
-28.7929
-29.1928
-29.5919
-29.7179
-28.9831
-26.5025
-22.1787
-19.0113
-16.522
-13.8119
-12.1042
-10.7759
-9.14874
-8.09179
-7.143
-5.89298
-5.33666
-5.28564
-5.22978
-4.92341
-4.78105
-4.67608
-4.44962
-4.37024
-4.34104
-4.24985
-4.2719
-4.33809
-4.30554
-4.12303
-4.01519
-3.93935
-3.82421
-3.77159
-3.73415
-3.65977
-3.62075
-3.58143
-3.51043
-3.4906
-3.5081
-3.5227
-3.51492
-3.51666
-3.51761
-3.50555
-3.50372
-3.50391
-3.49681
-3.49921
-3.50458
-3.49916
-3.478
-3.46373
-3.45158
-3.43408
-3.42224
-3.4108
-3.39488
-3.38637
-3.38419
-3.38413
-28.6403
-28.8282
-29.2013
-29.7401
-30.3601
-30.7912
-30.3294
-27.6535
-22.1837
-18.8581
-16.4492
-13.3137
-11.7236
-10.5661
-8.69458
-7.74696
-6.88579
-5.33898
-4.83924
-4.99715
-5.06656
-4.67907
-4.58873
-4.54376
-4.2578
-4.21688
-4.23441
-4.1131
-4.17523
-4.30644
-4.29744
-4.05111
-3.95018
-3.89425
-3.75407
-3.71765
-3.69897
-3.60861
-3.58125
-3.55103
-3.45725
-3.44314
-3.47863
-3.50461
-3.49193
-3.49888
-3.50514
-3.48824
-3.48989
-3.49404
-3.48389
-3.48994
-3.50137
-3.49791
-3.47001
-3.45623
-3.44573
-3.42491
-3.41408
-3.40337
-3.38348
-3.37471
-3.37388
-3.37474
-28.8998
-29.1219
-29.5728
-30.2542
-31.1168
-31.921
-31.8718
-29.0746
-21.9435
-18.6062
-16.462
-12.6602
-11.3097
-10.4467
-8.15451
-7.40712
-6.7179
-4.68914
-4.28786
-4.73123
-4.96266
-4.41144
-4.39955
-4.44469
-4.04629
-4.06343
-4.14822
-3.96129
-4.07481
-4.29224
-4.31683
-3.9657
-3.88279
-3.86067
-3.67507
-3.66397
-3.67346
-3.55244
-3.54376
-3.52915
-3.39721
-3.392
-3.45148
-3.49167
-3.46766
-3.48191
-3.49582
-3.46951
-3.47633
-3.48618
-3.46963
-3.48041
-3.49995
-3.49946
-3.46071
-3.44862
-3.44126
-3.41495
-3.40622
-3.39726
-3.37125
-3.3626
-3.36373
-3.36582
-29.1245
-29.3786
-29.9038
-30.7269
-31.847
-33.0918
-33.6361
-30.8877
-21.3171
-18.2398
-16.6468
-11.7786
-10.8624
-10.4817
-7.47641
-7.07587
-6.69715
-3.89713
-3.67163
-4.49899
-4.94516
-4.09912
-4.21258
-4.39624
-3.80051
-3.9095
-4.0941
-3.7846
-3.96783
-4.29888
-4.37467
-3.85595
-3.81188
-3.84556
-3.58121
-3.61039
-3.66264
-3.48692
-3.50846
-3.52042
-3.32646
-3.33623
-3.42747
-3.48596
-3.4404
-3.46564
-3.49104
-3.44808
-3.46298
-3.48136
-3.45307
-3.4703
-3.50064
-3.50489
-3.44897
-3.44078
-3.43889
-3.40352
-3.39866
-3.39311
-3.35767
-3.34993
-3.35382
-3.35744
-29.3149
-29.5979
-30.1917
-31.1505
-32.5335
-34.2798
-35.6409
-33.2751
-20.0968
-17.7463
-17.1361
-10.557
-10.3828
-10.7659
-6.57872
-6.75687
-6.90869
-2.8931
-2.98087
-4.31333
-5.05209
-3.7087
-4.02697
-4.42439
-3.49801
-3.75494
-4.08951
-3.56841
-3.85125
-4.32973
-4.48687
-3.70555
-3.73652
-3.85952
-3.46331
-3.55687
-3.67403
-3.40533
-3.47555
-3.5317
-3.23922
-3.27496
-3.40758
-3.49038
-3.40749
-3.45001
-3.49293
-3.42198
-3.44979
-3.48114
-3.4328
-3.45931
-3.50374
-3.51576
-3.43311
-3.43261
-3.43976
-3.38959
-3.39143
-3.39193
-3.34194
-3.33662
-3.34426
-3.34974
-29.472
-29.7801
-30.4348
-31.5183
-33.1585
-35.4506
-37.8871
-36.5053
-17.9822
-17.1208
-18.1257
-8.82795
-9.87497
-11.4373
-5.33825
-6.45401
-7.47553
-1.57352
-2.21044
-4.18784
-5.33667
-3.18998
-3.84243
-4.56708
-3.10513
-3.60021
-4.15991
-3.29123
-3.7225
-4.38749
-4.67634
-3.49061
-3.65628
-3.91822
-3.30763
-3.50352
-3.71862
-3.2976
-3.44525
-3.57292
-3.12698
-3.20777
-3.39285
-3.50906
-3.365
-3.43495
-3.50465
-3.38831
-3.43681
-3.48783
-3.4068
-3.44715
-3.50949
-3.53439
-3.41069
-3.42404
-3.44554
-3.37166
-3.38456
-3.39515
-3.32291
-3.32268
-3.33522
-3.34281
-29.5973
-29.9264
-30.6327
-31.8251
-33.7039
-36.5598
-40.3444
-40.9675
-14.5458
-16.3716
-19.8961
-6.34609
-9.34742
-12.6926
-3.57447
-6.17185
-8.57179
0.212172
-1.36522
-4.13445
-5.87284
-2.46992
-3.66005
-4.87855
-2.57275
-3.44693
-4.34153
-2.92203
-3.58047
-4.47304
-4.97564
-3.17686
-3.5717
-4.04414
-3.09416
-3.4509
-3.81215
-3.14904
-3.41784
-3.65823
-2.97743
-3.13503
-3.38428
-3.54775
-3.3072
-3.42053
-3.53071
-3.34289
-3.42414
-3.50477
-3.37218
-3.43371
-3.51798
-3.56408
-3.37824
-3.41515
-3.45866
-3.34752
-3.37814
-3.40482
-3.29889
-3.3083
-3.32693
-3.3368
-29.6928
-30.0384
-30.786
-32.068
-34.1536
-37.5532
-42.9302
-47.216
-9.19039
-15.5289
-22.8391
-2.7604
-8.81708
-14.8058
-1.02989
-5.91645
-10.4393
2.67886
-0.46824
-4.15941
-6.76236
-1.44506
-3.48343
-5.43455
-1.83079
-3.29875
-4.68469
-2.41677
-3.42729
-4.58376
-5.43051
-2.71619
-3.48503
-4.26873
-2.79433
-3.40023
-3.97662
-2.93875
-3.39372
-3.80729
-2.773
-3.05865
-3.3824
-3.61436
-3.22602
-3.40698
-3.57746
-3.27976
-3.41208
-3.53658
-3.32487
-3.41917
-3.52893
-3.60947
-3.33091
-3.40617
-3.48254
-3.31407
-3.37229
-3.42379
-3.26746
-3.29387
-3.31967
-3.33178
-29.7608
-30.1185
-30.8965
-32.2461
-34.4953
-38.3712
-45.4812
-56.0268
-1.09622
-14.6557
-27.4881
2.41961
-8.31369
-18.1508
2.65366
-5.69656
-13.4072
6.12758
0.427785
-4.25703
-8.14397
0.027697
-3.32024
-6.33849
-0.781546
-3.16242
-5.25772
-1.71397
-3.27074
-4.71084
-6.10423
-2.04234
-3.40105
-4.63483
-2.3683
-3.35374
-4.24211
-2.6377
-3.37348
-4.0469
-2.48912
-2.98297
-3.38688
-3.7197
-3.11031
-3.39476
-3.6536
-3.19063
-3.40111
-3.58959
-3.25916
-3.40426
-3.54145
-3.677
-3.26199
-3.39754
-3.52182
-3.26695
-3.36719
-3.45591
-3.2252
-3.28014
-3.31372
-3.32783
-29.8036
-30.169
-30.9668
-32.3609
-34.7218
-38.9551
-47.7164
-68.4657
10.8425
-13.8625
-34.5535
9.86404
-7.8863
-23.2278
7.96293
-5.52542
-17.9155
10.9722
1.22474
-4.4005
-10.2046
2.14201
-3.18417
-7.72863
0.708261
-3.0494
-6.15142
-0.72933
-3.12777
-4.83583
-7.08298
-1.06574
-3.32825
-5.19953
-1.76162
-3.31521
-4.64885
-2.20643
-3.35799
-4.41286
-2.09194
-2.91596
-3.39565
-3.87824
-2.94493
-3.38467
-3.7707
-3.06417
-3.39199
-3.67213
-3.16723
-3.39049
-3.55362
-3.77537
-3.16237
-3.39002
-3.58267
-3.20016
-3.36306
-3.50627
-3.1673
-3.26835
-3.30932
-3.3249
-29.8239
-30.193
-31.0003
-32.416
-34.8327
-39.2588
-49.1894
-85.9707
28.092
-13.3257
-44.961
20.4686
-7.61144
-30.6923
15.5451
-5.42316
-24.5416
17.7711
1.75878
-4.52932
-13.1931
5.15479
-3.09749
-9.78594
2.81668
-2.97776
-7.48403
0.650797
-3.02908
-4.92576
-8.48231
0.332492
-3.28026
-6.03718
-0.901541
-3.29053
-5.24948
-1.59243
-3.34851
-4.95205
-1.53572
-2.87085
-3.40391
-4.10918
-2.7097
-3.37793
-3.94385
-2.88515
-3.38583
-3.795
-3.03839
-3.38054
-3.56195
-3.91616
-3.01988
-3.38467
-3.67302
-3.10563
-3.3601
-3.58137
-3.08717
-3.2603
-3.30648
-3.32278
)
;

boundaryField
{
    left
    {
        type            calculated;
        value           nonuniform List<scalar> 
32
(
-20.6104
-20.6857
-20.8289
-21.0319
-21.2877
-21.5901
-21.9333
-22.3117
-22.7201
-23.153
-23.6053
-24.0714
-24.546
-25.0235
-25.4986
-25.9659
-26.4203
-26.8568
-27.2713
-27.6597
-28.0189
-28.3463
-28.6403
-28.8998
-29.1245
-29.3149
-29.472
-29.5973
-29.6928
-29.7608
-29.8036
-29.8239
)
;
    }
    right
    {
        type            calculated;
        value           nonuniform List<scalar> 
32
(
-3.56287
-3.56116
-3.55792
-3.55336
-3.54767
-3.541
-3.53351
-3.52531
-3.51654
-3.50728
-3.49762
-3.48764
-3.47741
-3.467
-3.45646
-3.44586
-3.43524
-3.42468
-3.41423
-3.40394
-3.39388
-3.38413
-3.37474
-3.36582
-3.35744
-3.34974
-3.34281
-3.3368
-3.33178
-3.32783
-3.3249
-3.32278
)
;
    }
    interface
    {
        type            calculated;
        value           nonuniform List<scalar> 
64
(
-29.8287
-30.1987
-31.0082
-32.4292
-34.8596
-39.336
-49.6676
-96.1954
38.2526
-13.1482
-51.1307
26.6885
-7.52372
-35.114
19.9964
-5.39227
-28.4657
21.7391
1.93476
-4.57994
-14.9547
6.92228
-3.06991
-11.0069
4.0509
-2.95503
-8.27673
1.45599
-2.99565
-4.95676
-9.30361
1.15391
-3.26454
-6.53473
-0.397777
-3.28254
-5.6057
-1.23228
-3.34546
-5.27158
-1.21129
-2.8558
-3.4071
-4.24547
-2.57176
-3.37557
-4.04657
-2.78033
-3.38365
-3.86803
-2.96321
-3.37694
-3.5646
-3.9988
-2.93617
-3.3827
-3.72668
-3.05027
-3.35894
-3.62603
-3.04059
-3.25748
-3.30544
-3.32189
)
;
    }
    bottom
    {
        type            calculated;
        value           nonuniform List<scalar> 
64
(
-20.5908
-20.4978
-20.3129
-20.0384
-19.6778
-19.2361
-18.72
-18.1379
-17.4995
-16.8157
-16.0982
-15.3588
-14.6092
-13.8601
-13.1213
-12.4012
-11.7068
-11.0434
-10.4151
-9.82426
-9.27238
-8.75975
-8.28584
-7.84946
-7.44894
-7.08229
-6.74728
-6.44163
-6.16302
-5.90922
-5.67809
-5.46765
-5.27607
-5.1017
-4.94307
-4.79883
-4.6678
-4.54888
-4.44109
-4.34352
-4.25534
-4.17576
-4.10403
-4.03948
-3.98143
-3.92929
-3.88247
-3.84046
-3.80277
-3.76897
-3.73867
-3.71152
-3.68725
-3.66558
-3.64632
-3.6293
-3.61438
-3.60147
-3.5905
-3.5814
-3.57415
-3.56873
-3.56512
-3.56332
)
;
    }
    defaultFaces
    {
        type            empty;
    }
}


// ************************************************************************* //
