/*--------------------------------*- C++ -*----------------------------------*\
| =========                 |                                                 |
| \\      /  F ield         | OpenFOAM: The Open Source CFD Toolbox           |
|  \\    /   O peration     | Version:  5.x                                   |
|   \\  /    A nd           | Web:      www.OpenFOAM.org                      |
|    \\/     M anipulation  |                                                 |
\*---------------------------------------------------------------------------*/
FoamFile
{
    version     2.0;
    format      ascii;
    class       volScalarField;
    location    "4";
    object      T;
}
// * * * * * * * * * * * * * * * * * * * * * * * * * * * * * * * * * * * * * //

dimensions      [0 0 0 1 0 0 0];

internalField   nonuniform List<scalar> 
2048
(
9.85207
9.85274
9.85407
9.85604
9.85863
9.8618
9.86551
9.86969
9.87428
9.87919
9.88435
9.88966
9.89504
9.90043
9.90573
9.91091
9.9159
9.92066
9.92518
9.92942
9.93338
9.93707
9.94047
9.94361
9.94648
9.94912
9.95153
9.95372
9.95572
9.95755
9.95921
9.96072
9.9621
9.96335
9.96449
9.96552
9.96647
9.96732
9.96809
9.96879
9.96943
9.97
9.97052
9.97098
9.9714
9.97177
9.97211
9.97241
9.97268
9.97292
9.97314
9.97334
9.97351
9.97367
9.9738
9.97393
9.97403
9.97413
9.9742
9.97427
9.97432
9.97436
9.97439
9.9744
9.56213
9.56411
9.56805
9.5739
9.58159
9.59101
9.60202
9.61444
9.62807
9.64266
9.65797
9.67374
9.68973
9.70569
9.72143
9.73677
9.75155
9.76566
9.77902
9.79158
9.8033
9.81419
9.82424
9.8335
9.842
9.84977
9.85687
9.86335
9.86925
9.87463
9.87953
9.88399
9.88805
9.89174
9.8951
9.89816
9.90094
9.90346
9.90574
9.90781
9.90968
9.91136
9.91288
9.91425
9.91548
9.91658
9.91757
9.91846
9.91926
9.91997
9.92062
9.92119
9.92171
9.92216
9.92257
9.92293
9.92325
9.92352
9.92376
9.92395
9.9241
9.92422
9.92429
9.92433
9.28337
9.28662
9.2931
9.30271
9.31536
9.33086
9.34899
9.36945
9.39189
9.41593
9.44114
9.46711
9.4934
9.51965
9.5455
9.57067
9.5949
9.61801
9.63987
9.6604
9.67955
9.69731
9.71371
9.72879
9.74263
9.75528
9.76684
9.77737
9.78697
9.79571
9.80367
9.81092
9.81752
9.82352
9.82899
9.83396
9.83847
9.84257
9.84628
9.84964
9.85268
9.85542
9.85789
9.86011
9.8621
9.86389
9.8655
9.86695
9.86824
9.8694
9.87045
9.87138
9.87221
9.87296
9.87362
9.87421
9.87472
9.87517
9.87555
9.87586
9.87611
9.8763
9.87643
9.87649
9.01456
9.01905
9.02799
9.04129
9.0588
9.08028
9.10541
9.13379
9.16494
9.1983
9.23328
9.26928
9.30571
9.34202
9.37775
9.41248
9.44588
9.47769
9.50774
9.53591
9.56216
9.58649
9.60892
9.62954
9.64843
9.66569
9.68145
9.6958
9.70888
9.72079
9.73163
9.7415
9.75049
9.75867
9.76611
9.77288
9.77903
9.78462
9.78967
9.79425
9.79839
9.80212
9.80547
9.8085
9.81121
9.81365
9.81583
9.8178
9.81956
9.82113
9.82255
9.82382
9.82496
9.82597
9.82687
9.82767
9.82837
9.82898
9.8295
9.82993
9.83027
9.83053
9.8307
9.83079
8.75466
8.76036
8.77173
8.78865
8.81095
8.83834
8.87043
8.9067
8.94653
8.98918
9.03388
9.07983
9.12629
9.17254
9.21797
9.26205
9.30438
9.34462
9.38258
9.4181
9.45114
9.48171
9.50987
9.53572
9.55938
9.58098
9.60068
9.61862
9.63496
9.64983
9.66336
9.67569
9.68691
9.69713
9.70643
9.71488
9.72257
9.72954
9.73586
9.74157
9.74673
9.75139
9.75558
9.75934
9.76273
9.76576
9.76849
9.77093
9.77312
9.77509
9.77685
9.77843
9.77985
9.78112
9.78224
9.78324
9.78412
9.78488
9.78553
9.78607
9.7865
9.78683
9.78704
9.78715
8.50283
8.50972
8.52347
8.54395
8.57099
8.60427
8.64331
8.6875
8.73603
8.78802
8.84247
8.89839
8.95484
9.01095
9.06596
9.11923
9.17027
9.21871
9.26429
9.30688
9.34641
9.38292
9.4165
9.44728
9.47542
9.50108
9.52447
9.54575
9.56512
9.58275
9.59879
9.6134
9.6267
9.63882
9.64984
9.65987
9.66899
9.67726
9.68475
9.69153
9.69764
9.70316
9.70812
9.71258
9.71658
9.72017
9.72339
9.72627
9.72886
9.73119
9.73327
9.73514
9.73681
9.73831
9.73965
9.74084
9.74188
9.74279
9.74356
9.74421
9.74472
9.74511
9.74536
9.74549
8.25837
8.26642
8.2825
8.3065
8.33824
8.37738
8.42341
8.47557
8.53293
8.59435
8.65865
8.72461
8.79108
8.85701
8.92151
8.98384
9.04342
9.09983
9.15278
9.20214
9.24786
9.29001
9.3287
9.36412
9.39644
9.4259
9.45271
9.4771
9.49927
9.51945
9.53781
9.55453
9.56977
9.58364
9.59627
9.60777
9.61821
9.62768
9.63627
9.64403
9.65103
9.65734
9.66301
9.66811
9.67267
9.67677
9.68044
9.68374
9.68669
9.68934
9.69172
9.69385
9.69577
9.69748
9.69901
9.70037
9.70157
9.70262
9.70351
9.70425
9.70485
9.70529
9.70559
9.70574
8.02071
8.02989
8.04823
8.07568
8.11208
8.1571
8.21016
8.27042
8.33673
8.40777
8.48208
8.55819
8.63474
8.71051
8.78444
8.85571
8.92366
8.98782
9.04789
9.10374
9.15536
9.20284
9.24634
9.28609
9.32232
9.35529
9.38527
9.41252
9.43728
9.45981
9.4803
9.49898
9.51599
9.53149
9.54561
9.55846
9.57013
9.58072
9.59032
9.59899
9.60681
9.61385
9.62017
9.62584
9.63093
9.63549
9.63958
9.64324
9.64652
9.64947
9.65211
9.65449
9.65662
9.65854
9.66025
9.66177
9.66312
9.66429
9.66529
9.66613
9.6668
9.6673
9.66764
9.66781
7.78938
7.79965
7.82019
7.85101
7.89201
7.9429
8.00306
8.07155
8.14704
8.22791
8.31243
8.39886
8.4856
8.57122
8.65455
8.73466
8.81081
8.88252
8.94947
9.01153
9.06875
9.12125
9.16926
9.21304
9.25289
9.28911
9.322
9.35187
9.379
9.40368
9.42613
9.44659
9.46524
9.48224
9.49773
9.51183
9.52464
9.53627
9.54679
9.5563
9.56487
9.57258
9.5795
9.58571
9.59126
9.59624
9.60069
9.60469
9.60827
9.61148
9.61437
9.61697
9.6193
9.6214
9.62328
9.62495
9.62643
9.62772
9.62883
9.62976
9.6305
9.63106
9.63143
9.63162
7.56403
7.57532
7.59797
7.63205
7.67758
7.73431
7.80166
7.87856
7.96346
8.05445
8.14944
8.24639
8.34343
8.43896
8.53166
8.6205
8.70471
8.78375
8.85733
8.92533
8.98783
9.04505
9.09726
9.14478
9.18797
9.22717
9.26273
9.29499
9.32428
9.35091
9.37515
9.39724
9.41739
9.43578
9.45253
9.46778
9.48164
9.49422
9.5056
9.51588
9.52514
9.53346
9.54092
9.5476
9.55357
9.55892
9.56371
9.56801
9.57185
9.57531
9.57841
9.58121
9.58372
9.58598
9.58801
9.58983
9.59144
9.59285
9.59406
9.59507
9.59588
9.59649
9.5969
9.59711
7.34436
7.35661
7.38124
7.41844
7.46837
7.53092
7.60554
7.69106
7.78567
7.8871
7.99285
8.10055
8.20804
8.31353
8.41557
8.51306
8.60517
8.69134
8.77128
8.84493
8.91242
8.97404
9.03015
9.08113
9.12738
9.1693
9.20729
9.24171
9.27295
9.30134
9.32719
9.35078
9.37231
9.39195
9.40987
9.42618
9.44101
9.45446
9.46663
9.47761
9.4875
9.49637
9.50432
9.51143
9.51778
9.52346
9.52855
9.5331
9.53719
9.54086
9.54416
9.54713
9.5498
9.55222
9.55439
9.55634
9.55806
9.55958
9.56089
9.56198
9.56286
9.56352
9.56397
9.56419
7.13016
7.14328
7.16973
7.20988
7.26405
7.33235
7.41431
7.50868
7.61336
7.7256
7.84247
7.96117
8.07926
8.19476
8.30611
8.41214
8.51199
8.60509
8.69114
8.77014
8.84231
8.90802
8.96772
9.02186
9.07091
9.11531
9.15548
9.19185
9.22483
9.25481
9.28212
9.30705
9.32984
9.35064
9.36963
9.38691
9.40263
9.41688
9.42977
9.4414
9.45186
9.46123
9.46962
9.4771
9.48379
9.48977
9.49511
9.4999
9.5042
9.50805
9.51152
9.51465
9.51747
9.52002
9.52232
9.52439
9.52623
9.52786
9.52925
9.53043
9.53137
9.53209
9.53256
9.5328
6.92127
6.93516
6.96325
7.0061
7.06431
7.13824
7.22761
7.3311
7.44624
7.56974
7.6981
7.82807
7.95692
8.08247
8.20309
8.31755
8.42498
8.52479
8.6167
8.70074
8.77726
8.84675
8.90974
8.96678
9.01836
9.06499
9.10712
9.14523
9.17976
9.21115
9.23976
9.26592
9.28985
9.31172
9.33168
9.34986
9.36639
9.38138
9.39493
9.40715
9.41813
9.42795
9.43672
9.44454
9.45152
9.45775
9.46333
9.46832
9.47279
9.47681
9.48043
9.4837
9.48665
9.48933
9.49175
9.49393
9.49588
9.4976
9.49909
9.50034
9.50135
9.50211
9.50262
9.50287
6.7176
6.73212
6.76162
6.80688
6.86886
6.94827
7.04509
7.15799
7.28407
7.41933
7.55958
7.70112
7.84086
7.97649
8.10632
8.2291
8.34393
8.45025
8.54773
8.63651
8.71706
8.79
8.856
8.91565
8.96953
9.01815
9.06203
9.10167
9.13756
9.17019
9.19996
9.22723
9.2522
9.27505
9.29591
9.31491
9.33219
9.34785
9.36201
9.37476
9.38621
9.39644
9.40555
9.41366
9.42089
9.42734
9.43311
9.43827
9.44291
9.44707
9.45082
9.4542
9.45727
9.46006
9.46259
9.46488
9.46693
9.46874
9.47032
9.47164
9.47272
9.47353
9.47407
9.47434
6.51907
6.5341
6.56474
6.61207
6.67745
6.7621
6.86639
6.98904
7.12663
7.2742
7.4268
7.58019
7.73095
7.87666
8.01562
8.14657
8.26865
8.38125
8.48405
8.57723
8.66146
8.73755
8.80625
8.86826
8.92419
8.97459
9.02001
9.06099
9.09807
9.13176
9.16257
9.19083
9.21676
9.2405
9.26219
9.28195
9.29991
9.31618
9.3309
9.34414
9.35602
9.3666
9.37601
9.38437
9.39181
9.39844
9.40438
9.40969
9.41446
9.41874
9.4226
9.42609
9.42926
9.43215
9.43478
9.43717
9.43932
9.44123
9.44288
9.44428
9.44542
9.44628
9.44685
9.44714
6.32568
6.34105
6.37252
6.4215
6.48986
6.57943
6.69117
6.82396
6.97372
7.13424
7.29965
7.46518
7.62705
7.78278
7.93078
8.06976
8.1989
8.3176
8.42543
8.52267
8.61022
8.68914
8.76028
8.82439
8.88215
8.93413
8.98089
9.02303
9.06111
9.09572
9.12742
9.15658
9.18339
9.20796
9.23042
9.25087
9.26945
9.28629
9.3015
9.3152
9.32746
9.33836
9.34802
9.35658
9.3642
9.37099
9.37706
9.3825
9.38738
9.39177
9.39572
9.3993
9.40255
9.40553
9.40826
9.41074
9.41299
9.41498
9.41672
9.4182
9.41939
9.4203
9.4209
9.4212
6.13743
6.15296
6.18493
6.23509
6.30588
6.39995
6.51907
6.66243
6.82517
6.99935
7.17803
7.35599
7.52902
7.6947
7.85161
7.99844
8.13446
8.25909
8.37168
8.47259
8.5631
8.64454
8.71783
8.78382
8.84322
8.89657
8.94449
8.98761
9.02652
9.06188
9.09436
9.12436
9.15198
9.17732
9.20048
9.22156
9.2407
9.25806
9.27373
9.28784
9.30045
9.31164
9.3215
9.33023
9.33799
9.3449
9.35109
9.35663
9.36161
9.36608
9.37011
9.37376
9.37708
9.38014
9.38296
9.38554
9.38787
9.38995
9.39178
9.39332
9.39458
9.39553
9.39616
9.39648
5.95434
5.96985
6.00195
6.05275
6.12536
6.22338
6.3497
6.50413
6.68087
6.86947
7.06188
7.25256
7.43674
7.6122
7.7779
7.93238
8.0751
8.20552
8.32259
8.42676
8.51984
8.60351
8.6787
8.74633
8.80719
8.86174
8.91064
8.95459
8.99415
9.03011
9.06325
9.09402
9.1224
9.14845
9.17228
9.19393
9.21358
9.23141
9.2475
9.26198
9.27492
9.28635
9.29638
9.30523
9.3131
9.32011
9.32638
9.33202
9.33707
9.34161
9.34571
9.34941
9.35279
9.35592
9.35882
9.36149
9.36391
9.36608
9.36798
9.3696
9.37092
9.37192
9.37258
9.37291
5.77646
5.79176
5.82359
5.87444
5.94813
6.04941
6.18266
6.34873
6.54072
6.74458
6.95112
7.15482
7.35007
7.53508
7.70944
7.87135
8.02056
8.15672
8.27799
8.38496
8.48017
8.56581
8.64266
8.71171
8.77388
8.82947
8.87918
8.92381
8.96387
9.00024
9.03394
9.06545
9.09455
9.12126
9.1457
9.16788
9.18799
9.20624
9.22272
9.23753
9.25079
9.26244
9.27259
9.28152
9.28946
9.29655
9.30289
9.3086
9.31371
9.31831
9.32245
9.3262
9.32962
9.33281
9.3358
9.33855
9.34106
9.34332
9.34529
9.34698
9.34837
9.34941
9.3501
9.35044
5.60382
5.61872
5.64988
5.70016
5.7741
5.87777
6.0175
6.19584
6.40475
6.62472
6.84568
7.06277
7.26889
7.4631
7.64605
7.81509
7.97057
8.11251
8.23771
8.34693
8.44383
8.53123
8.60949
8.67975
8.74312
8.79958
8.84993
8.89513
8.93552
8.97213
9.00629
9.03853
9.06832
9.09563
9.12068
9.14332
9.16382
9.18249
9.1993
9.21443
9.22799
9.23982
9.25004
9.25901
9.26701
9.27415
9.28054
9.28631
9.29147
9.2961
9.30029
9.30406
9.30751
9.31075
9.31383
9.31667
9.31926
9.3216
9.32365
9.32541
9.32687
9.32796
9.32867
9.32902
5.43649
5.45079
5.48088
5.52992
5.60318
5.70819
5.85373
6.04502
6.27306
6.50995
6.74545
6.9764
7.19307
7.39597
7.58753
7.76335
7.92482
8.07278
8.20161
8.31243
8.41052
8.49954
8.57899
8.65023
8.71476
8.77193
8.82276
8.86845
8.90899
8.94563
8.98014
9.01317
9.04362
9.07148
9.09711
9.12017
9.141
9.16006
9.17716
9.19258
9.20646
9.21845
9.22868
9.23764
9.24569
9.25284
9.25926
9.26509
9.27029
9.27494
9.27917
9.28295
9.2864
9.28969
9.29286
9.29578
9.29845
9.30088
9.30301
9.30484
9.30637
9.30751
9.30824
9.30859
5.2745
5.28803
5.31665
5.36379
5.43536
5.54041
5.69079
5.89572
6.1459
6.4004
6.65022
6.89578
7.12247
7.33336
7.53374
7.71585
7.88294
8.03744
8.16958
8.2812
8.37994
8.47057
8.55096
8.62295
8.68866
8.74638
8.79748
8.84365
8.88417
8.92059
8.95534
8.98929
9.02036
9.0487
9.07495
9.09834
9.11943
9.13888
9.15624
9.1719
9.18615
9.19826
9.20843
9.21734
9.22542
9.23258
9.23901
9.2449
9.25011
9.25478
9.25904
9.26282
9.26625
9.26958
9.27285
9.27586
9.2786
9.28113
9.28332
9.28522
9.28683
9.28801
9.28876
9.28912
5.11788
5.13047
5.15727
5.20183
5.27063
5.37425
5.52808
5.74724
6.02375
6.29623
6.55971
6.82108
7.05696
7.27481
7.48463
7.67234
7.84449
8.00647
8.14156
8.25297
8.35171
8.44417
8.52522
8.59765
8.66471
8.72279
8.77394
8.82066
8.86096
8.89686
8.93174
8.96682
8.99848
9.02719
9.05412
9.07776
9.09902
9.11891
9.13646
9.15231
9.167
9.1792
9.18924
9.19804
9.20617
9.21331
9.21972
9.22568
9.2309
9.23555
9.23986
9.24361
9.24701
9.25036
9.25376
9.25685
9.25965
9.26228
9.26454
9.2665
9.2682
9.26944
9.27019
9.27055
4.96666
4.97817
5.0028
5.04416
5.10909
5.20955
5.36493
5.59861
5.90742
6.19765
6.4734
6.7526
6.9964
7.21976
7.44022
7.63254
7.80889
7.97998
8.1175
8.22745
8.32546
8.42024
8.50161
8.57409
8.64286
8.70103
8.75195
8.79942
8.83928
8.87429
8.90914
8.94573
8.97789
9.00684
9.03458
9.05837
9.07967
9.10009
9.11774
9.13372
9.14898
9.16124
9.17103
9.17966
9.18789
9.19497
9.20133
9.2074
9.2126
9.21722
9.22159
9.2253
9.22862
9.23198
9.23555
9.23871
9.24156
9.24431
9.24662
9.24863
9.25046
9.25174
9.25249
9.25284
4.82084
4.83115
4.85332
4.89089
4.95086
5.04625
5.20064
5.44855
5.79814
6.10493
6.3905
6.69085
6.94065
7.16742
7.40074
7.59616
7.77542
7.95819
8.09742
8.20431
8.30069
8.39879
8.47997
8.55195
8.6231
8.681
8.73129
8.77992
8.81906
8.85274
8.88736
8.92604
8.95856
8.98751
9.01633
9.04009
9.06126
9.08239
9.10003
9.11603
9.13207
9.14433
9.15375
9.16214
9.17052
9.17752
9.18378
9.19001
9.19516
9.19972
9.20419
9.20784
9.21103
9.21438
9.21819
9.2214
9.22428
9.22717
9.22953
9.23158
9.23355
9.23487
9.23561
9.23595
4.68039
4.68941
4.70888
4.74217
4.79612
4.88439
5.0345
5.29521
5.69778
6.01831
6.30979
6.6367
6.88957
7.11674
7.36665
7.56294
7.74307
7.94157
8.08134
8.1832
8.27685
8.37991
8.46018
8.53087
8.60548
8.66259
8.7117
8.7622
8.80026
8.83204
8.86615
8.90781
8.94041
8.96904
8.99937
9.02287
9.04366
9.0658
9.08325
9.09912
9.11627
9.12844
9.13734
9.1454
9.15406
9.1609
9.16701
9.1735
9.17855
9.18299
9.18764
9.19119
9.19421
9.19752
9.20165
9.20488
9.20776
9.21085
9.21321
9.21528
9.21745
9.21881
9.21952
9.21984
4.54529
4.55295
4.56954
4.59812
4.64511
4.72415
4.86584
5.13605
5.60907
5.93806
6.22949
6.59147
6.843
7.06626
7.33879
7.53261
7.71051
7.93088
8.06932
8.16375
8.25322
8.36388
8.4421
8.51037
8.59018
8.64569
8.69285
8.74635
8.78285
8.81204
8.8452
8.89119
8.92342
8.95123
8.98376
9.00665
9.02672
9.05037
9.06735
9.08284
9.10161
9.11354
9.12172
9.12933
9.13849
9.14508
9.15095
9.15785
9.16273
9.16699
9.17192
9.17532
9.1781
9.18134
9.18591
9.18913
9.19195
9.19531
9.19765
9.19969
9.20213
9.20351
9.20418
9.20446
4.41549
4.42174
4.43533
4.45889
4.49812
4.56585
4.69417
4.96745
5.53587
5.86435
6.14699
6.55715
6.80075
7.01402
7.31852
7.5049
7.67595
7.92728
8.06139
8.14555
8.22892
8.35118
8.42562
8.48984
8.57752
8.63021
8.67432
8.73258
8.76679
8.79261
8.82414
8.87641
8.90754
8.93382
8.96962
8.99137
9.01024
9.03615
9.05228
9.06701
9.08815
9.0996
9.10684
9.11386
9.12381
9.13002
9.13551
9.14304
9.14766
9.15164
9.15701
9.1602
9.16266
9.16576
9.17099
9.1741
9.17679
9.18054
9.18279
9.18476
9.18758
9.18894
9.18954
9.18979
4.29089
4.29572
4.30625
4.32459
4.35545
4.40999
4.5193
4.7844
5.48363
5.79725
6.05868
6.53664
6.7626
6.95731
7.30786
7.47954
7.63697
7.9325
8.0575
8.12821
8.2028
8.34257
8.41062
8.46848
8.568
8.61604
8.65556
8.7212
8.75206
8.7736
8.80247
8.86385
8.89271
8.91648
8.95714
8.97698
8.99397
9.02328
9.03797
9.0514
9.076
9.08658
9.09263
9.09884
9.11006
9.11568
9.1206
9.12911
9.1333
9.13687
9.14293
9.1458
9.14786
9.1507
9.15687
9.15977
9.16222
9.16653
9.16861
9.17043
9.17377
9.17507
9.17558
9.17578
4.17142
4.17483
4.18228
4.19531
4.21742
4.25725
4.34153
4.58001
5.45974
5.73662
5.95959
6.53407
6.72823
6.89256
7.30977
7.45625
7.59035
7.94903
8.05745
8.11136
8.17343
8.33919
8.39697
8.44523
8.56239
8.60308
8.63586
8.71266
8.7386
8.75494
8.77955
8.85403
8.87889
8.89876
8.94662
8.96342
8.97757
9.01197
9.02438
9.03573
9.06533
9.07445
9.07904
9.08415
9.09728
9.10202
9.10611
9.11608
9.11961
9.12258
9.12968
9.13209
9.13365
9.13609
9.1436
9.1461
9.14816
9.1533
9.15507
9.15662
9.16072
9.16186
9.16225
9.1624
4.05697
4.05899
4.0634
4.07113
4.08433
4.10844
4.16202
4.34492
5.47416
5.68198
5.84311
6.55512
6.69721
6.815
7.32834
7.43474
7.5319
7.98031
8.06078
8.09476
8.13894
8.34263
8.38451
8.41875
8.56175
8.59118
8.61429
8.70765
8.72633
8.73659
8.75456
8.84772
8.86597
8.88009
8.93848
8.95062
8.96065
9.00252
9.01145
9.01962
9.0564
9.06313
9.06601
9.06962
9.0856
9.089
9.09189
9.10402
9.10656
9.10866
9.1173
9.11904
9.12002
9.12181
9.13122
9.13307
9.13454
9.14085
9.14214
9.14326
9.14842
9.14928
9.14953
9.14962
3.9474
3.94807
3.94952
3.95208
3.95644
3.96448
3.98304
4.0666
5.54004
5.63236
5.70058
6.60747
6.66892
6.71847
7.3691
7.4147
7.45614
8.03103
8.0666
8.0783
8.09693
8.35508
8.37303
8.38728
8.56757
8.58015
8.58971
8.70708
8.71508
8.7186
8.72641
8.84593
8.85386
8.85974
8.93332
8.9385
8.94267
8.99534
8.99914
9.0026
9.04957
9.05252
9.05351
9.05502
9.07513
9.07658
9.07778
9.09303
9.09411
9.09498
9.10586
9.10661
9.10694
9.10772
9.11982
9.12062
9.12124
9.12924
9.12979
9.13027
9.1369
9.13729
9.13738
9.13741
)
;

boundaryField
{
    left
    {
        type            zeroGradient;
    }
    right
    {
        type            zeroGradient;
    }
    interface
    {
        type            fixedValue;
        value           nonuniform List<scalar> 
64
(
3.89383
3.89383
3.89383
3.89383
3.89383
3.89383
3.89383
3.89383
5.60875
5.60875
5.60875
6.65541
6.65541
6.65541
7.40502
7.40502
7.40502
8.07007
8.07007
8.07007
8.07007
8.36751
8.36751
8.36751
8.57484
8.57484
8.57484
8.7097
8.7097
8.7097
8.7097
8.848
8.848
8.848
8.9326
8.9326
8.9326
8.99313
8.99313
8.99313
9.04739
9.04739
9.04739
9.04739
9.07051
9.07051
9.07051
9.08804
9.08804
9.08804
9.10054
9.10054
9.10054
9.10054
9.11455
9.11455
9.11455
9.12376
9.12376
9.12376
9.13144
9.13144
9.13144
9.13144
)
;
    }
    bottom
    {
        type            fixedValue;
        value           uniform 10;
    }
    defaultFaces
    {
        type            empty;
    }
}


// ************************************************************************* //
