/*--------------------------------*- C++ -*----------------------------------*\
| =========                 |                                                 |
| \\      /  F ield         | OpenFOAM: The Open Source CFD Toolbox           |
|  \\    /   O peration     | Version:  5.x                                   |
|   \\  /    A nd           | Web:      www.OpenFOAM.org                      |
|    \\/     M anipulation  |                                                 |
\*---------------------------------------------------------------------------*/
FoamFile
{
    version     2.0;
    format      ascii;
    class       volScalarField;
    location    "8.4";
    object      gradTy;
}
// * * * * * * * * * * * * * * * * * * * * * * * * * * * * * * * * * * * * * //

dimensions      [0 -1 0 1 0 0 0];

internalField   nonuniform List<scalar> 
2048
(
-20.1632
-20.0665
-19.8741
-19.5883
-19.2125
-18.752
-18.2133
-17.6051
-16.9372
-16.2208
-15.4681
-14.6911
-13.902
-13.1117
-12.3306
-11.5671
-10.8287
-10.1208
-9.44779
-8.81227
-8.21578
-7.65876
-7.14078
-6.66073
-6.21703
-5.80775
-5.43078
-5.0839
-4.76492
-4.4717
-4.20223
-3.95469
-3.7274
-3.51888
-3.32781
-3.15302
-2.99345
-2.84815
-2.71622
-2.59683
-2.48916
-2.39244
-2.30589
-2.22876
-2.16031
-2.0998
-2.04654
-1.99985
-1.95909
-1.92367
-1.89301
-1.8666
-1.84398
-1.82469
-1.80835
-1.79461
-1.78316
-1.77373
-1.76608
-1.76
-1.75534
-1.75196
-1.74975
-1.74867
-20.2414
-20.1439
-19.9497
-19.661
-19.2811
-18.8151
-18.2696
-17.6533
-16.9763
-16.2503
-15.4877
-14.701
-13.9028
-13.1044
-12.3162
-11.5469
-10.8039
-10.0927
-9.41743
-8.78069
-8.18385
-7.62717
-7.11008
-6.63132
-6.18917
-5.78161
-5.40642
-5.06133
-4.74406
-4.45246
-4.18449
-3.93829
-3.7122
-3.50474
-3.31462
-3.14068
-2.98189
-2.83731
-2.70606
-2.58732
-2.48028
-2.38418
-2.29825
-2.22172
-2.15385
-2.09391
-2.04119
-1.99502
-1.95475
-1.91978
-1.88954
-1.86352
-1.84124
-1.82227
-1.80622
-1.79273
-1.7815
-1.77226
-1.76477
-1.75883
-1.75427
-1.75097
-1.74882
-1.74776
-20.3901
-20.291
-20.0935
-19.7995
-19.412
-18.9356
-18.3771
-17.7453
-17.0509
-16.3062
-15.5245
-14.7193
-13.9037
-13.0898
-12.2881
-11.5078
-10.7561
-10.0386
-9.35923
-8.72031
-8.12291
-7.56701
-7.0517
-6.57546
-6.13634
-5.73209
-5.36033
-5.01865
-4.70468
-4.41616
-4.15102
-3.90736
-3.68353
-3.47808
-3.28974
-3.1174
-2.96006
-2.81683
-2.68685
-2.56933
-2.4635
-2.36857
-2.28379
-2.2084
-2.14165
-2.08279
-2.0311
-1.98591
-1.94656
-1.91245
-1.883
-1.85771
-1.8361
-1.81772
-1.8022
-1.78919
-1.77838
-1.7695
-1.76232
-1.75663
-1.75228
-1.74912
-1.74708
-1.74607
-20.6009
-20.4997
-20.2979
-19.9967
-19.5985
-19.1077
-18.5307
-17.8766
-17.157
-16.3853
-15.576
-14.7441
-13.9035
-13.0673
-12.2465
-11.4506
-10.6868
-9.96058
-9.27559
-8.63383
-8.03593
-7.48137
-6.96883
-6.49637
-6.06167
-5.66223
-5.29542
-4.95865
-4.64938
-4.36526
-4.10411
-3.86404
-3.64338
-3.44072
-3.25486
-3.08473
-2.92941
-2.78804
-2.65984
-2.54404
-2.43987
-2.3466
-2.26345
-2.18967
-2.12449
-2.06715
-2.01693
-1.97313
-1.93508
-1.90218
-1.87385
-1.84959
-1.8289
-1.81137
-1.7966
-1.78426
-1.77403
-1.76566
-1.75891
-1.75358
-1.74951
-1.74657
-1.74466
-1.74372
-20.8665
-20.763
-20.5563
-20.2466
-19.8355
-19.3267
-18.7262
-18.0436
-17.2914
-16.4846
-15.6397
-14.7732
-13.9006
-13.036
-12.1911
-11.3756
-10.5967
-9.85989
-9.16828
-8.52341
-7.92533
-7.37291
-6.86422
-6.39682
-5.96795
-5.57476
-5.21434
-4.88384
-4.58057
-4.30201
-4.0459
-3.8103
-3.59357
-3.39435
-3.21151
-3.04409
-2.89124
-2.75217
-2.62615
-2.51245
-2.41036
-2.31915
-2.23805
-2.16629
-2.1031
-2.04768
-1.99929
-1.95723
-1.92082
-1.88943
-1.86251
-1.83952
-1.82
-1.80352
-1.78969
-1.77817
-1.76868
-1.76094
-1.75472
-1.74983
-1.74612
-1.74344
-1.74171
-1.74086
-21.1802
-21.0746
-20.8628
-20.5441
-20.1187
-19.589
-18.9607
-18.2435
-17.4514
-16.6017
-15.7131
-14.8045
-13.8933
-12.9947
-12.1212
-11.2826
-10.4864
-9.73748
-9.03863
-8.39077
-7.79315
-7.24388
-6.7403
-6.27931
-5.85768
-5.47213
-5.11945
-4.79654
-4.50045
-4.22851
-3.97835
-3.74797
-3.53578
-3.34051
-3.16113
-2.99679
-2.84674
-2.71029
-2.58677
-2.47551
-2.37584
-2.28703
-2.20833
-2.13896
-2.07811
-2.02496
-1.97875
-1.93874
-1.90424
-1.87464
-1.84935
-1.82787
-1.8097
-1.79444
-1.78171
-1.77116
-1.76252
-1.75551
-1.74992
-1.74555
-1.74225
-1.73988
-1.73836
-1.73761
-21.5362
-21.4288
-21.2125
-20.8851
-20.4447
-19.892
-19.2318
-18.4742
-17.635
-16.7342
-15.794
-14.836
-13.8798
-12.942
-12.0358
-11.1714
-10.3559
-9.59395
-8.88773
-8.23736
-7.64119
-7.09634
-6.59925
-6.14611
-5.73312
-5.35659
-5.01295
-4.69883
-4.41104
-4.14668
-3.90325
-3.67872
-3.47155
-3.28059
-3.10496
-2.94397
-2.79698
-2.66339
-2.54261
-2.43404
-2.33705
-2.25094
-2.17496
-2.1083
-2.05011
-1.99955
-1.9558
-1.91811
-1.88578
-1.85818
-1.83474
-1.81494
-1.7983
-1.78441
-1.77289
-1.76343
-1.75573
-1.74955
-1.74466
-1.74087
-1.73803
-1.73601
-1.73472
-1.73409
-21.9285
-21.8202
-21.6007
-21.2657
-20.8107
-20.2338
-19.5381
-18.7342
-17.8403
-16.8801
-15.8799
-14.8652
-13.8579
-12.8763
-11.9341
-11.0415
-10.2053
-9.42977
-8.71643
-8.06447
-7.47106
-6.93214
-6.4431
-5.9993
-5.59637
-5.23016
-4.89681
-4.59264
-4.31418
-4.05828
-3.82227
-3.60408
-3.40226
-3.21584
-3.04415
-2.88666
-2.74288
-2.61232
-2.49446
-2.38877
-2.29467
-2.21151
-2.13852
-2.07486
-2.01963
-1.97192
-1.93089
-1.89576
-1.86581
-1.84041
-1.81899
-1.80102
-1.78604
-1.77363
-1.76344
-1.75515
-1.74849
-1.74319
-1.73907
-1.73592
-1.73358
-1.73194
-1.7309
-1.73039
-22.3517
-22.2435
-22.023
-21.6827
-21.2146
-20.613
-19.8788
-19.0227
-18.0658
-17.0373
-15.9687
-14.8898
-13.8258
-12.7962
-11.815
-10.8923
-10.0345
-9.24529
-8.5255
-7.87325
-7.28429
-6.75306
-6.27375
-5.84083
-5.44932
-5.09471
-4.77283
-4.47969
-4.21155
-3.96492
-3.73692
-3.52544
-3.32916
-3.14739
-2.9797
-2.82578
-2.68529
-2.55784
-2.44301
-2.34033
-2.24929
-2.16928
-2.09953
-2.03914
-1.98713
-1.94253
-1.90445
-1.87207
-1.84468
-1.82164
-1.80237
-1.78636
-1.77315
-1.76233
-1.75355
-1.7465
-1.74093
-1.73658
-1.73327
-1.73079
-1.729
-1.72776
-1.72699
-1.72661
-22.8002
-22.6939
-22.4752
-22.1332
-21.6548
-21.0292
-20.2538
-19.3392
-18.3105
-17.2038
-16.0577
-14.9074
-13.7813
-12.7
-11.6775
-10.7234
-9.8435
-9.04083
-8.31564
-7.66482
-7.08233
-6.56081
-6.09302
-5.67253
-5.29377
-4.95193
-4.64261
-4.36156
-4.10467
-3.86809
-3.6486
-3.44405
-3.25338
-3.07621
-2.91248
-2.76211
-2.62493
-2.50063
-2.38888
-2.28928
-2.20141
-2.12472
-2.05844
-2.00157
-1.95303
-1.91177
-1.87683
-1.84738
-1.8227
-1.80214
-1.78514
-1.77119
-1.75984
-1.75068
-1.74336
-1.73761
-1.73318
-1.72983
-1.72736
-1.7256
-1.72437
-1.72355
-1.72306
-1.72283
-23.2684
-23.1662
-22.9533
-22.6144
-22.13
-21.4825
-20.6639
-19.6839
-18.5733
-17.3775
-16.1444
-14.9154
-13.7222
-12.5862
-11.5209
-10.5346
-9.63232
-8.81669
-8.08749
-7.44025
-6.86666
-6.35708
-5.9027
-5.49613
-5.13134
-4.80336
-4.50762
-4.23964
-3.99493
-3.76914
-3.55859
-3.36107
-3.17589
-3.00317
-2.84323
-2.69633
-2.56242
-2.44127
-2.3326
-2.23611
-2.15148
-2.07825
-2.01564
-1.96254
-1.91772
-1.88
-1.84837
-1.82199
-1.80012
-1.78215
-1.76752
-1.75571
-1.74628
-1.73883
-1.73302
-1.72861
-1.72534
-1.72302
-1.72144
-1.72041
-1.71977
-1.7194
-1.7192
-1.71911
-23.7508
-23.6553
-23.4532
-23.1237
-22.6395
-21.9737
-21.1104
-20.0577
-18.8534
-17.5564
-16.2261
-14.911
-13.6464
-12.4537
-11.3444
-10.3256
-9.40112
-8.57317
-7.84162
-7.2006
-6.63876
-6.14357
-5.70452
-5.31331
-4.96355
-4.65035
-4.36913
-4.11515
-3.88358
-3.66934
-3.46809
-3.27753
-3.09756
-2.92897
-2.7726
-2.62902
-2.49831
-2.38026
-2.27465
-2.18125
-2.09987
-2.03021
-1.97149
-1.92241
-1.88152
-1.84753
-1.81937
-1.79616
-1.7772
-1.76189
-1.74968
-1.74008
-1.73262
-1.72692
-1.72265
-1.71958
-1.71751
-1.71624
-1.71556
-1.71529
-1.71526
-1.71535
-1.71545
-1.7155
-24.2418
-24.156
-23.9706
-23.6586
-23.1829
-22.5044
-21.5958
-20.4618
-19.1499
-17.7378
-16.2995
-14.8913
-13.5518
-12.3012
-11.1477
-10.0966
-9.15022
-8.31053
-7.57855
-6.94696
-6.40022
-5.92203
-5.50019
-5.12563
-4.79177
-4.49414
-4.22825
-3.98916
-3.7717
-3.56986
-3.37821
-3.19434
-3.01911
-2.85423
-2.70108
-2.56066
-2.43309
-2.31806
-2.21544
-2.12505
-2.04687
-1.98087
-1.92627
-1.88148
-1.84475
-1.81466
-1.79008
-1.77012
-1.75414
-1.74154
-1.73181
-1.72444
-1.719
-1.71507
-1.71234
-1.71063
-1.70976
-1.70956
-1.70981
-1.71031
-1.7109
-1.71145
-1.71186
-1.71206
-24.7356
-24.6631
-24.5012
-24.2163
-23.7598
-23.0767
-22.1236
-20.8984
-19.4618
-17.9187
-16.3613
-14.853
-13.4364
-12.1279
-10.9307
-9.84805
-8.88015
-8.02895
-7.29863
-6.68042
-6.15272
-5.69421
-5.29141
-4.93464
-4.61724
-4.33577
-4.08594
-3.86256
-3.66029
-3.47183
-3.29003
-3.11232
-2.94116
-2.77943
-2.62908
-2.49163
-2.36715
-2.25507
-2.15534
-2.06785
-1.99273
-1.93044
-1.88024
-1.84005
-1.8077
-1.78165
-1.76074
-1.74408
-1.7311
-1.72126
-1.71402
-1.70893
-1.70553
-1.70337
-1.70218
-1.70181
-1.70215
-1.70302
-1.70421
-1.70551
-1.70673
-1.70775
-1.70846
-1.70882
-25.2267
-25.1713
-25.0405
-24.794
-24.3701
-23.6936
-22.6984
-21.3705
-19.7876
-18.0955
-16.4078
-14.7929
-13.2981
-11.9335
-10.6936
-9.58072
-8.59174
-7.72848
-7.002
-6.40214
-5.89813
-5.46192
-5.07983
-4.74179
-4.44105
-4.17612
-3.943
-3.73602
-3.55015
-3.37632
-3.20463
-3.03217
-2.86416
-2.70494
-2.55689
-2.42227
-2.30087
-2.19162
-2.0947
-2.00993
-1.93763
-1.87909
-1.83361
-1.79838
-1.77062
-1.74874
-1.73157
-1.71822
-1.70825
-1.70117
-1.69645
-1.69365
-1.6923
-1.69192
-1.69223
-1.69318
-1.69472
-1.69667
-1.69881
-1.70091
-1.70278
-1.70427
-1.70529
-1.7058
-25.7095
-25.675
-25.5837
-25.3884
-25.0133
-24.3586
-23.3264
-21.882
-20.1249
-18.2637
-16.4351
-14.7072
-13.1351
-11.7181
-10.4369
-9.2958
-8.28622
-7.40887
-6.68845
-6.11336
-5.6386
-5.22698
-4.86705
-4.54854
-4.26408
-4.01593
-3.80012
-3.61001
-3.44197
-3.28446
-3.1231
-2.95446
-2.78844
-2.63106
-2.48466
-2.35281
-2.23461
-2.12802
-2.03382
-1.95159
-1.88168
-1.82689
-1.78659
-1.75675
-1.73376
-1.71615
-1.70275
-1.69266
-1.68569
-1.68138
-1.67916
-1.67868
-1.67941
-1.6808
-1.68255
-1.68477
-1.68749
-1.69054
-1.69364
-1.69656
-1.69908
-1.70105
-1.70237
-1.70302
-26.1788
-26.1692
-26.1258
-25.9957
-25.6887
-25.076
-24.0158
-22.4385
-20.4701
-18.4176
-16.4395
-14.5918
-12.9459
-11.4827
-10.1611
-8.99491
-7.96546
-7.06938
-6.35726
-5.81551
-5.37673
-4.9911
-4.6546
-4.35634
-4.08699
-3.85574
-3.65791
-3.48475
-3.33622
-3.19742
-3.04667
-2.87957
-2.71416
-2.55803
-2.41245
-2.28342
-2.16873
-2.0645
-1.97301
-1.89311
-1.82489
-1.77384
-1.73934
-1.71545
-1.69733
-1.68404
-1.67446
-1.66754
-1.66353
-1.662
-1.66225
-1.66408
-1.66693
-1.67006
-1.67318
-1.67661
-1.6805
-1.68465
-1.68873
-1.69247
-1.69565
-1.69809
-1.69971
-1.70049
-26.6296
-26.6485
-26.6614
-26.6115
-26.395
-25.8502
-24.7769
-23.0476
-20.817
-18.5503
-16.4181
-14.4416
-12.7289
-11.2297
-9.86676
-8.68012
-7.63232
-6.70845
-6.00695
-5.5103
-5.11573
-4.75579
-4.44386
-4.1668
-3.91011
-3.69595
-3.51704
-3.36009
-3.23317
-3.11651
-2.97677
-2.80761
-2.64129
-2.4861
-2.34013
-2.21422
-2.10364
-2.00124
-1.91255
-1.83487
-1.7672
-1.71983
-1.69206
-1.67479
-1.66152
-1.6526
-1.64686
-1.64293
-1.64183
-1.64309
-1.64574
-1.6499
-1.65492
-1.65978
-1.66414
-1.6687
-1.67374
-1.67902
-1.68409
-1.68865
-1.6925
-1.69541
-1.69731
-1.69823
-27.0575
-27.108
-27.185
-27.2306
-27.1299
-26.6858
-25.6229
-23.7203
-21.1555
-18.6531
-16.3696
-14.2505
-12.4828
-10.963
-9.55345
-8.35396
-7.29124
-6.32325
-5.63504
-5.19995
-4.85978
-4.52208
-4.23601
-3.9818
-3.73329
-3.53677
-3.37833
-3.23548
-3.13278
-3.04325
-2.91519
-2.7383
-2.56959
-2.41563
-2.26734
-2.14528
-2.0399
-1.93826
-1.85273
-1.77735
-1.70836
-1.66464
-1.64493
-1.63517
-1.62648
-1.62194
-1.62013
-1.61886
-1.62064
-1.62475
-1.62968
-1.63617
-1.64346
-1.65002
-1.65545
-1.66103
-1.66723
-1.67366
-1.67972
-1.68511
-1.68965
-1.69302
-1.69518
-1.69621
-27.4583
-27.5431
-27.6911
-27.8469
-27.8894
-27.5869
-26.5701
-24.4725
-21.4693
-18.7155
-16.296
-14.01
-12.2067
-10.6895
-9.21924
-8.01942
-6.94925
-5.90883
-5.23772
-4.88742
-4.61447
-4.29007
-4.03197
-3.80389
-3.55564
-3.37826
-3.24308
-3.10972
-3.0346
-2.9795
-2.86429
-2.67069
-2.49861
-2.34728
-2.19343
-2.07658
-1.9783
-1.87537
-1.79384
-1.72126
-1.64792
-1.6079
-1.59819
-1.59708
-1.59228
-1.59216
-1.59446
-1.59534
-1.59998
-1.60705
-1.61405
-1.6229
-1.6326
-1.64087
-1.6471
-1.65359
-1.66095
-1.66859
-1.67565
-1.68186
-1.6871
-1.69093
-1.69333
-1.69446
-27.829
-27.9498
-28.1741
-28.4535
-28.6679
-28.5564
-27.6385
-25.3278
-21.7326
-18.725
-16.2052
-13.7075
-11.8994
-10.4206
-8.85898
-7.67984
-6.61742
-5.45701
-4.80947
-4.57676
-4.38744
-4.05825
-3.8323
-3.6367
-3.37511
-3.22032
-3.11339
-2.98072
-2.93772
-2.92755
-2.82737
-2.60284
-2.4276
-2.28226
-2.11719
-2.00809
-1.92006
-1.81201
-1.73617
-1.6677
-1.5851
-1.54907
-1.55219
-1.56118
-1.55885
-1.5633
-1.57011
-1.57227
-1.57985
-1.59013
-1.59881
-1.61007
-1.62242
-1.63241
-1.63907
-1.64634
-1.65489
-1.66381
-1.67188
-1.67889
-1.68487
-1.68913
-1.69173
-1.69294
-28.1669
-28.3243
-28.6286
-29.0427
-29.4576
-29.5947
-28.852
-26.3221
-21.9043
-18.6672
-16.1148
-13.3236
-11.5602
-10.1744
-8.46199
-7.33891
-6.31314
-4.95452
-4.34288
-4.27354
-4.18937
-3.82243
-3.63717
-3.48577
-3.18784
-3.06267
-2.99283
-2.84507
-2.84059
-2.89023
-2.80909
-2.53124
-2.3556
-2.22274
-2.03662
-1.93968
-1.86707
-1.74701
-1.67998
-1.61838
-1.51864
-1.48742
-1.50738
-1.52839
-1.52596
-1.53538
-1.54745
-1.54946
-1.56022
-1.57417
-1.58388
-1.59766
-1.613
-1.62478
-1.6313
-1.63922
-1.64904
-1.65936
-1.66841
-1.67619
-1.68296
-1.68764
-1.6904
-1.69166
-28.4702
-28.6641
-29.0494
-29.6062
-30.2482
-30.6989
-30.2373
-27.5098
-21.9212
-18.5258
-16.0575
-12.8276
-11.1881
-9.97937
-8.00853
-7.0005
-6.06344
-4.38027
-3.82847
-3.98526
-4.03525
-3.57423
-3.4463
-3.35969
-2.98714
-2.90494
-2.88722
-2.69742
-2.74092
-2.87096
-2.81626
-2.45004
-2.28138
-2.17244
-1.9484
-1.87119
-1.8223
-1.67822
-1.62556
-1.57597
-1.44649
-1.42203
-1.46438
-1.49995
-1.49303
-1.50835
-1.52703
-1.52655
-1.54105
-1.55942
-1.56909
-1.58558
-1.60445
-1.61814
-1.6237
-1.63218
-1.64338
-1.65527
-1.66525
-1.67374
-1.68141
-1.68646
-1.68932
-1.69061
-28.7378
-28.9669
-29.4322
-30.1355
-31.0266
-31.8604
-31.8229
-28.9736
-21.6868
-18.284
-16.0892
-12.171
-10.7826
-9.87967
-7.46471
-6.66861
-5.90966
-3.70144
-3.25503
-3.72167
-3.94629
-3.29884
-3.25903
-3.27178
-2.762
-2.74667
-2.80583
-2.52951
-2.6357
-2.87375
-2.85882
-2.34984
-2.20354
-2.13747
-1.84724
-1.80244
-1.79037
-1.60198
-1.57316
-1.54452
-1.36547
-1.35183
-1.42403
-1.47763
-1.45901
-1.48212
-1.50971
-1.50295
-1.52228
-1.54633
-1.55418
-1.57378
-1.59687
-1.61273
-1.61611
-1.62515
-1.63791
-1.65158
-1.66242
-1.6715
-1.68024
-1.6856
-1.68848
-1.68975
-28.9697
-29.2316
-29.7732
-30.622
-31.7773
-33.0634
-33.6354
-30.8384
-21.0566
-17.9256
-16.2989
-11.2782
-10.3435
-9.94213
-6.77531
-6.34721
-5.91391
-2.86768
-2.61056
-3.49484
-3.95247
-2.97203
-3.07441
-3.24231
-2.495
-2.58747
-2.76302
-2.32891
-2.52126
-2.90303
-2.95127
-2.21613
-2.12068
-2.12743
-1.72483
-1.73324
-1.77826
-1.51242
-1.52304
-1.53018
-1.27068
-1.27566
-1.38739
-1.46386
-1.42213
-1.45659
-1.49676
-1.47766
-1.50386
-1.53553
-1.53871
-1.56215
-1.5904
-1.60889
-1.60828
-1.61805
-1.63259
-1.64838
-1.65991
-1.66942
-1.67949
-1.68506
-1.68787
-1.68909
-29.1661
-29.4577
-30.0698
-31.0578
-32.4831
-34.2835
-35.6936
-33.2908
-19.8176
-17.4379
-16.8234
-10.0331
-9.87213
-10.2661
-5.85404
-6.04028
-6.16774
-1.80321
-1.88431
-3.31878
-4.09608
-2.55601
-2.89157
-3.30165
-2.15933
-2.42722
-2.78036
-2.07711
-2.39363
-2.96314
-3.11475
-2.02713
-2.03161
-2.15695
-1.56846
-1.66356
-1.79642
-1.40035
-1.47545
-1.54197
-1.15473
-1.19257
-1.35575
-1.46203
-1.37962
-1.43165
-1.49007
-1.44918
-1.48574
-1.52794
-1.52202
-1.55059
-1.58519
-1.60708
-1.59983
-1.61084
-1.62743
-1.64575
-1.65773
-1.66741
-1.67924
-1.68485
-1.68746
-1.68859
-29.3281
-29.6456
-30.3202
-31.4362
-33.1253
-35.4856
-37.9984
-36.6058
-17.6619
-16.8158
-17.8647
-8.26209
-9.37226
-10.9963
-4.57068
-5.75185
-6.80346
-0.395888
-1.07044
-3.20809
-4.43639
-1.99415
-2.71014
-3.49425
-1.71495
-2.26643
-2.88935
-1.74704
-2.24933
-3.05744
-3.37966
-1.75085
-1.93577
-2.24763
-1.35912
-1.59359
-1.86009
-1.25198
-1.43072
-1.59298
-1.00664
-1.10208
-1.33051
-1.47685
-1.32725
-1.40726
-1.49239
-1.41521
-1.46795
-1.52494
-1.50307
-1.53904
-1.58136
-1.60793
-1.5902
-1.60348
-1.62237
-1.64383
-1.6559
-1.66534
-1.67957
-1.68495
-1.68724
-1.68824
-29.4575
-29.7965
-30.524
-31.7519
-33.6857
-36.6241
-40.5189
-41.1819
-14.1512
-16.0676
-19.7125
-5.71058
-8.85251
-12.3389
-2.73453
-5.48639
-8.00849
1.51719
-0.173806
-3.17538
-5.05591
-1.20413
-2.53111
-3.88365
-1.10344
-2.10685
-3.13488
-1.2997
-2.08668
-3.18686
-3.78932
-1.34149
-1.83387
-2.43043
-1.06904
-1.52409
-1.991
-1.04715
-1.38928
-1.70171
-0.810455
-1.0048
-1.31301
-1.51476
-1.25883
-1.38355
-1.50765
-1.37236
-1.45061
-1.52842
-1.48036
-1.52752
-1.579
-1.61234
-1.57854
-1.59603
-1.61736
-1.64279
-1.65438
-1.66301
-1.68064
-1.68533
-1.68715
-1.68799
-29.5561
-29.9121
-30.682
-32.0018
-34.1477
-37.6435
-43.1702
-47.587
-8.67352
-15.2236
-22.7715
-2.01489
-8.32958
-14.5814
-0.0738282
-5.24934
-10.0432
4.16838
0.781156
-3.22679
-6.06847
-0.0694758
-2.3579
-4.55872
-0.24159
-1.95232
-3.57937
-0.679846
-1.90793
-3.34751
-4.40461
-0.734704
-1.72864
-2.74862
-0.658635
-1.45671
-2.21953
-0.757127
-1.35183
-1.89387
-0.543333
-0.9033
-1.30412
-1.58457
-1.16555
-1.36092
-1.54125
-1.31577
-1.43407
-1.54099
-1.45168
-1.51619
-1.5781
-1.6215
-1.56364
-1.58862
-1.61228
-1.64281
-1.65317
-1.66013
-1.68263
-1.68593
-1.68715
-1.68781
-29.6263
-29.9948
-30.7959
-32.185
-34.4988
-38.4827
-45.7853
-56.6157
-0.388746
-14.3473
-27.5928
3.33305
-7.83292
-18.1168
3.78916
-5.0482
-13.2626
7.88293
1.73795
-3.35499
-7.62937
1.57073
-2.19795
-5.64103
0.986399
-1.80998
-4.30772
0.189491
-1.7224
-3.52731
-5.30982
0.158032
-1.62607
-3.26124
-0.0726765
-1.39454
-2.58715
-0.341966
-1.31952
-2.20442
-0.173258
-0.803277
-1.30372
-1.6982
-1.03517
-1.34024
-1.60054
-1.23859
-1.41897
-1.56611
-1.41392
-1.50548
-1.57845
-1.637
-1.54382
-1.58158
-1.60694
-1.64415
-1.6522
-1.65631
-1.68578
-1.68661
-1.68715
-1.68763
-29.6706
-30.0471
-30.8684
-32.3032
-34.7315
-39.0817
-48.0763
-69.3599
11.8362
-13.5503
-34.9105
11.027
-7.41106
-23.4708
9.36743
-4.89399
-18.1409
13.1078
2.59099
-3.52908
-9.9482
3.93404
-2.06469
-7.29333
2.73826
-1.69192
-5.43301
1.41367
-1.55093
-3.70132
-6.61991
1.45626
-1.53684
-4.04709
0.764139
-1.34287
-3.14938
0.252608
-1.29421
-2.68009
0.343822
-0.71523
-1.30985
-1.87161
-0.851057
-1.32307
-1.69527
-1.13143
-1.40642
-1.60838
-1.36275
-1.49623
-1.57956
-1.66101
-1.51671
-1.57547
-1.60097
-1.6471
-1.6514
-1.65098
-1.69043
-1.68716
-1.68702
-1.68738
-29.6916
-30.0719
-30.903
-32.36
-34.8455
-39.3934
-49.5859
-87.2927
29.5034
-13.0106
-45.6821
21.9939
-7.13981
-31.3327
17.3425
-4.80332
-25.3012
20.4458
3.16348
-3.68067
-13.3042
7.30867
-1.9801
-9.72917
5.22432
-1.61739
-7.10287
3.13441
-1.43183
-3.82558
-8.48924
3.31841
-1.47828
-5.20914
1.95226
-1.31017
-3.9791
1.09867
-1.27899
-3.38223
1.06724
-0.656736
-1.31768
-2.12616
-0.591283
-1.31217
-1.83833
-0.981903
-1.39845
-1.67386
-1.29253
-1.49014
-1.58071
-1.6966
-1.47936
-1.57144
-1.59408
-1.65224
-1.65086
-1.64361
-1.69723
-1.68748
-1.68683
-1.68715
)
;

boundaryField
{
    left
    {
        type            calculated;
        value           nonuniform List<scalar> 
32
(
-20.1632
-20.2414
-20.3901
-20.6009
-20.8665
-21.1802
-21.5362
-21.9285
-22.3517
-22.8002
-23.2684
-23.7508
-24.2418
-24.7356
-25.2267
-25.7095
-26.1788
-26.6296
-27.0575
-27.4583
-27.829
-28.1669
-28.4702
-28.7378
-28.9697
-29.1661
-29.3281
-29.4575
-29.5561
-29.6263
-29.6706
-29.6916
)
;
    }
    right
    {
        type            calculated;
        value           nonuniform List<scalar> 
32
(
-1.74867
-1.74776
-1.74607
-1.74372
-1.74086
-1.73761
-1.73409
-1.73039
-1.72661
-1.72283
-1.71911
-1.7155
-1.71206
-1.70882
-1.7058
-1.70302
-1.70049
-1.69823
-1.69621
-1.69446
-1.69294
-1.69166
-1.69061
-1.68975
-1.68909
-1.68859
-1.68824
-1.68799
-1.68781
-1.68763
-1.68738
-1.68715
)
;
    }
    interface
    {
        type            calculated;
        value           nonuniform List<scalar> 
64
(
-29.6967
-30.0779
-30.9113
-32.3737
-34.8732
-39.4727
-50.0759
-97.7669
39.9109
-12.8321
-52.0662
28.4277
-7.05331
-35.9881
22.0261
-4.77637
-29.54
24.7293
3.35224
-3.73945
-15.2813
9.28973
-1.95335
-11.1732
6.68084
-1.59394
-8.09476
4.13917
-1.39146
-3.86838
-9.58578
4.41295
-1.45932
-5.89875
2.64844
-1.29987
-4.47113
1.5948
-1.27438
-3.79861
1.489
-0.637602
-1.3212
-2.27677
-0.439381
-1.30874
-1.92377
-0.894794
-1.39594
-1.71328
-1.25187
-1.48816
-1.5812
-1.71774
-1.45773
-1.57014
-1.59037
-1.65545
-1.65069
-1.63936
-1.7013
-1.68759
-1.68675
-1.68708
)
;
    }
    bottom
    {
        type            calculated;
        value           nonuniform List<scalar> 
64
(
-20.1428
-20.0463
-19.8544
-19.5693
-19.1947
-18.7355
-18.1987
-17.5925
-16.927
-16.2131
-15.463
-14.6885
-13.9017
-13.1136
-12.3342
-11.5723
-10.8351
-10.1281
-9.45567
-8.82048
-8.22409
-7.66699
-7.14878
-6.6684
-6.2243
-5.81458
-5.43714
-5.08981
-4.77037
-4.47673
-4.20688
-3.95898
-3.73138
-3.52258
-3.33126
-3.15624
-2.99647
-2.85098
-2.71888
-2.59931
-2.49148
-2.3946
-2.30789
-2.2306
-2.16199
-2.10134
-2.04793
-2.00111
-1.96023
-1.92468
-1.89392
-1.86741
-1.84469
-1.82532
-1.80891
-1.79511
-1.7836
-1.77412
-1.76642
-1.76031
-1.75562
-1.75221
-1.75
-1.74891
)
;
    }
    defaultFaces
    {
        type            empty;
    }
}


// ************************************************************************* //
