/*--------------------------------*- C++ -*----------------------------------*\
| =========                 |                                                 |
| \\      /  F ield         | OpenFOAM: The Open Source CFD Toolbox           |
|  \\    /   O peration     | Version:  5.x                                   |
|   \\  /    A nd           | Web:      www.OpenFOAM.org                      |
|    \\/     M anipulation  |                                                 |
\*---------------------------------------------------------------------------*/
FoamFile
{
    version     2.0;
    format      ascii;
    class       volScalarField;
    location    "10.2";
    object      gradTy;
}
// * * * * * * * * * * * * * * * * * * * * * * * * * * * * * * * * * * * * * //

dimensions      [0 -1 0 1 0 0 0];

internalField   nonuniform List<scalar> 
2048
(
-20.1553
-20.0584
-19.8658
-19.5796
-19.2033
-18.7421
-18.2026
-17.5934
-16.9244
-16.2069
-15.4528
-14.6744
-13.8837
-13.0917
-12.3087
-11.5434
-10.8028
-10.0928
-9.41744
-8.77945
-8.18033
-7.62051
-7.09952
-6.61627
-6.16912
-5.75612
-5.37515
-5.02396
-4.70032
-4.4021
-4.12728
-3.874
-3.64061
-3.42563
-3.22778
-3.04589
-2.87896
-2.72606
-2.58637
-2.45909
-2.34347
-2.2388
-2.14435
-2.05943
-1.98336
-1.91544
-1.85504
-1.80151
-1.75426
-1.71271
-1.67633
-1.64462
-1.61713
-1.59341
-1.57309
-1.55582
-1.54127
-1.52916
-1.51925
-1.51132
-1.5052
-1.50073
-1.49781
-1.49637
-20.2336
-20.1359
-19.9415
-19.6524
-19.272
-18.8053
-18.259
-17.6418
-16.9637
-16.2365
-15.4725
-14.6844
-13.8846
-13.0845
-12.2945
-11.5233
-10.7782
-10.0648
-9.3872
-8.748
-8.14854
-7.58908
-7.069
-6.58705
-6.14147
-5.73022
-5.35105
-5.00166
-4.67976
-4.38317
-4.10983
-3.8579
-3.6257
-3.41178
-3.21485
-3.03378
-2.86759
-2.71537
-2.57631
-2.44964
-2.33461
-2.23051
-2.13663
-2.05227
-1.97673
-1.90935
-1.84946
-1.79641
-1.74962
-1.70851
-1.67253
-1.6412
-1.61404
-1.59064
-1.57061
-1.55359
-1.53926
-1.52736
-1.51762
-1.50984
-1.50383
-1.49944
-1.49658
-1.49517
-20.3825
-20.2833
-20.0856
-19.7911
-19.4031
-18.926
-18.3667
-17.734
-17.0385
-16.2926
-15.5096
-14.7029
-13.8857
-13.0701
-12.2666
-11.4843
-10.7306
-10.0109
-9.32922
-8.68786
-8.08787
-7.52921
-7.01096
-6.53157
-6.08906
-5.68115
-5.30545
-4.95951
-4.64093
-4.34744
-4.07695
-3.82755
-3.5976
-3.38565
-3.19046
-3.01093
-2.84612
-2.69518
-2.55731
-2.43177
-2.31784
-2.21483
-2.12202
-2.03871
-1.96422
-1.89784
-1.83891
-1.78679
-1.74087
-1.70057
-1.66536
-1.63473
-1.60822
-1.58542
-1.56592
-1.54938
-1.53549
-1.52396
-1.51455
-1.50704
-1.50125
-1.49704
-1.49429
-1.49293
-20.5936
-20.4923
-20.2902
-19.9886
-19.5899
-19.0984
-18.5206
-17.8656
-17.1449
-16.3719
-15.5614
-14.7279
-13.8858
-13.0478
-12.2253
-11.4274
-10.6615
-9.93317
-9.2459
-8.60173
-8.00127
-7.44401
-6.92857
-6.453
-6.01497
-5.61193
-5.24124
-4.90025
-4.58642
-4.29735
-4.03087
-3.78506
-3.55826
-3.34906
-3.15627
-2.97888
-2.81599
-2.66681
-2.53059
-2.40663
-2.29425
-2.19275
-2.10145
-2.01964
-1.94661
-1.88165
-1.82409
-1.77328
-1.72859
-1.68944
-1.6553
-1.62567
-1.60008
-1.5781
-1.55936
-1.54351
-1.53022
-1.51923
-1.51028
-1.50315
-1.49768
-1.4937
-1.49111
-1.48983
-20.8595
-20.756
-20.5489
-20.2388
-19.8273
-19.3177
-18.7165
-18.0329
-17.2796
-16.4717
-15.6254
-14.7574
-13.8832
-13.0169
-12.1702
-11.3527
-10.5718
-9.83284
-9.13897
-8.49173
-7.89114
-7.33606
-6.82454
-6.3541
-5.92198
-5.52526
-5.16102
-4.82638
-4.5186
-4.23514
-3.97372
-3.73237
-3.50947
-3.30366
-3.11382
-2.93904
-2.77849
-2.63145
-2.49726
-2.37525
-2.26478
-2.16518
-2.07577
-1.99583
-1.92464
-1.86148
-1.80564
-1.75646
-1.71331
-1.67561
-1.64282
-1.61442
-1.58997
-1.56904
-1.55124
-1.53624
-1.52371
-1.51338
-1.505
-1.49837
-1.49328
-1.4896
-1.48721
-1.48603
-21.1737
-21.068
-20.8559
-20.5368
-20.1109
-19.5805
-18.9514
-18.2332
-17.4401
-16.5892
-15.6992
-14.7891
-13.8763
-12.976
-12.1006
-11.2601
-10.4619
-9.71083
-9.00977
-8.35957
-7.7595
-7.20764
-6.70129
-6.23736
-5.81255
-5.42357
-5.06717
-4.74019
-4.43966
-4.16287
-3.90742
-3.67131
-3.45291
-3.25098
-3.06451
-2.89268
-2.73479
-2.59021
-2.45832
-2.33855
-2.23029
-2.1329
-2.04571
-1.96798
-1.89897
-1.83792
-1.78411
-1.73686
-1.69553
-1.65952
-1.6283
-1.60137
-1.57825
-1.55854
-1.54184
-1.52782
-1.51618
-1.50663
-1.49893
-1.49286
-1.48824
-1.48491
-1.48275
-1.48169
-21.5301
-21.4226
-21.2061
-20.8783
-20.4374
-19.8841
-19.223
-18.4645
-17.6242
-16.7222
-15.7805
-14.821
-13.8632
-12.9237
-12.0157
-11.1493
-10.3318
-9.56775
-8.85934
-8.20669
-7.60814
-7.06076
-6.561
-6.10501
-5.68895
-5.30909
-4.96183
-4.64374
-4.3516
-4.08246
-3.83378
-3.60351
-3.3901
-3.19241
-3.00959
-2.84096
-2.68595
-2.54403
-2.41466
-2.29735
-2.19154
-2.09663
-2.01194
-1.93673
-1.87019
-1.81155
-1.76004
-1.71497
-1.67568
-1.64159
-1.61214
-1.58684
-1.56522
-1.54687
-1.53141
-1.5185
-1.50785
-1.49917
-1.49223
-1.48681
-1.48271
-1.47977
-1.47788
-1.47696
-21.923
-21.8145
-21.5948
-21.2594
-20.8039
-20.2263
-19.5299
-18.725
-17.83
-16.8685
-15.867
-14.8507
-13.8418
-12.8585
-11.9144
-11.0198
-10.1817
-9.40404
-8.68855
-8.03436
-7.43864
-6.89728
-6.40566
-5.95912
-5.55323
-5.18382
-4.84698
-4.53895
-4.25624
-3.99564
-3.75442
-3.5305
-3.32241
-3.12919
-2.95019
-2.7849
-2.63291
-2.49377
-2.36707
-2.25237
-2.1492
-2.05698
-1.97505
-1.90262
-1.83884
-1.78286
-1.7339
-1.69122
-1.65417
-1.62217
-1.59465
-1.57114
-1.55115
-1.53429
-1.52017
-1.50847
-1.4989
-1.49117
-1.48507
-1.48035
-1.47683
-1.47433
-1.47274
-1.47197
-22.3467
-22.2384
-22.0176
-21.677
-21.2084
-20.6062
-19.8712
-19.0141
-18.0561
-17.0263
-15.9562
-14.8758
-13.8102
-12.7788
-11.7958
-10.8711
-10.0113
-9.22004
-8.49815
-7.84373
-7.25252
-6.71895
-6.23717
-5.80163
-5.40729
-5.04962
-4.72438
-4.42753
-4.15525
-3.90401
-3.67087
-3.45366
-3.25109
-3.06243
-2.88729
-2.72541
-2.57648
-2.4402
-2.31624
-2.20426
-2.10385
-2.01451
-1.93556
-1.86616
-1.80539
-1.75231
-1.7061
-1.666
-1.63136
-1.60159
-1.57614
-1.55454
-1.5363
-1.52103
-1.50834
-1.49792
-1.48949
-1.48279
-1.47758
-1.47362
-1.47072
-1.46871
-1.46743
-1.46683
-22.7957
-22.6893
-22.4704
-22.1281
-21.6492
-21.023
-20.2468
-19.3312
-18.3014
-17.1934
-16.0458
-14.894
-13.7662
-12.6831
-11.6588
-10.7027
-9.82078
-9.01607
-8.28882
-7.63588
-7.05123
-6.52746
-6.05733
-5.63434
-5.2529
-4.90815
-4.59563
-4.31102
-4.05014
-3.80906
-3.58449
-3.37425
-3.17724
-2.9931
-2.82178
-2.66325
-2.51739
-2.38398
-2.26278
-2.15355
-2.05599
-1.96967
-1.89392
-1.8278
-1.77026
-1.7203
-1.67702
-1.63965
-1.60755
-1.58013
-1.55688
-1.53728
-1.52089
-1.50728
-1.49608
-1.48701
-1.47978
-1.47415
-1.46988
-1.46674
-1.46451
-1.46301
-1.46207
-1.46166
-23.2645
-23.1622
-22.9491
-22.6099
-22.1251
-21.477
-20.6575
-19.6766
-18.5649
-17.3678
-16.1332
-14.9025
-13.7076
-12.5698
-11.5026
-10.5143
-9.61006
-8.79242
-8.06118
-7.4119
-6.83623
-6.32451
-5.86791
-5.45898
-5.09167
-4.76094
-4.46218
-4.19082
-3.94228
-3.71212
-3.49658
-3.29339
-3.10184
-2.92205
-2.75439
-2.59912
-2.45627
-2.32569
-2.20722
-2.10073
-2.00605
-1.92288
-1.85053
-1.78793
-1.73386
-1.6872
-1.64701
-1.6125
-1.58304
-1.55807
-1.53707
-1.51957
-1.5051
-1.49321
-1.48356
-1.47586
-1.46988
-1.46536
-1.46208
-1.4598
-1.45827
-1.45732
-1.45674
-1.45653
-23.7475
-23.6519
-23.4496
-23.1199
-22.6353
-21.9689
-21.1048
-20.0511
-18.8456
-17.5473
-16.2154
-14.8987
-13.6324
-12.4378
-11.3266
-10.3058
-9.37931
-8.54936
-7.81582
-7.17282
-6.609
-6.11179
-5.67063
-5.27721
-4.92509
-4.60934
-4.32529
-4.06813
-3.83291
-3.61446
-3.40831
-3.2121
-3.02574
-2.85
-2.68574
-2.53358
-2.39366
-2.26583
-2.15004
-2.04622
-1.9544
-1.87446
-1.80573
-1.7469
-1.69653
-1.65335
-1.61638
-1.5848
-1.55806
-1.5356
-1.51694
-1.5016
-1.4891
-1.47898
-1.47091
-1.46461
-1.45989
-1.45652
-1.45427
-1.45289
-1.4521
-1.45173
-1.45153
-1.45152
-24.239
-24.1532
-23.9676
-23.6554
-23.1793
-22.5002
-21.5909
-20.456
-19.1429
-17.7293
-16.2895
-14.8796
-13.5383
-12.2858
-11.1304
-10.0773
-9.12885
-8.28716
-7.55323
-6.91973
-6.37111
-5.89101
-5.46721
-5.0906
-4.75455
-4.45455
-4.18605
-3.94401
-3.72312
-3.51724
-3.32079
-3.13132
-2.94966
-2.77754
-2.61634
-2.46712
-2.33003
-2.20487
-2.09163
-1.99038
-1.90132
-1.82469
-1.75981
-1.70504
-1.65859
-1.61905
-1.58539
-1.55682
-1.53282
-1.51292
-1.49665
-1.48352
-1.47305
-1.46473
-1.45823
-1.45334
-1.4499
-1.44771
-1.44651
-1.44606
-1.44605
-1.44629
-1.44648
-1.44669
-24.7334
-24.6609
-24.4989
-24.2138
-23.757
-23.0733
-22.1195
-20.8933
-19.4555
-17.911
-16.3519
-14.842
-13.4234
-12.113
-10.9138
-9.82914
-8.85919
-8.00599
-7.27375
-6.65372
-6.12424
-5.66395
-5.25932
-4.90065
-4.58125
-4.29761
-4.04541
-3.81932
-3.61387
-3.42157
-3.23511
-3.05183
-2.87421
-2.70514
-2.54659
-2.40012
-2.26581
-2.14319
-2.03239
-1.93351
-1.84704
-1.77376
-1.71303
-1.66264
-1.62034
-1.58458
-1.5543
-1.52874
-1.50752
-1.4902
-1.47633
-1.46546
-1.45707
-1.45057
-1.44564
-1.44214
-1.43997
-1.43897
-1.43886
-1.43939
-1.44019
-1.44107
-1.44166
-1.4421
-25.225
-25.1696
-25.0388
-24.7922
-24.3679
-23.691
-22.6951
-21.3662
-19.782
-18.0885
-16.399
-14.7824
-13.2857
-11.9191
-10.6772
-9.56223
-8.57116
-7.70589
-6.97752
-6.37593
-5.87026
-5.43239
-5.04861
-4.70884
-4.40627
-4.1394
-3.90415
-3.69474
-3.50597
-3.32856
-3.15233
-2.97434
-2.79983
-2.63318
-2.47676
-2.3329
-2.20137
-2.08114
-1.97264
-1.87592
-1.79172
-1.72181
-1.66561
-1.62
-1.58205
-1.55018
-1.52334
-1.50077
-1.4823
-1.46757
-1.45611
-1.44754
-1.44127
-1.43662
-1.43321
-1.43106
-1.43016
-1.43037
-1.43137
-1.43292
-1.43455
-1.43611
-1.43711
-1.43779
-25.7084
-25.674
-25.5826
-25.3873
-25.0119
-24.3569
-23.324
-21.8785
-20.1201
-18.2574
-16.427
-14.6973
-13.1233
-11.7042
-10.4209
-9.27771
-8.266
-7.3866
-6.66433
-6.08761
-5.61131
-5.19815
-4.83669
-4.5166
-4.23049
-3.98063
-3.76296
-3.57072
-3.4001
-3.2393
-3.07356
-2.8994
-2.72684
-2.56194
-2.407
-2.2657
-2.13706
-2.01902
-1.9127
-1.81788
-1.73543
-1.6689
-1.61775
-1.57741
-1.54398
-1.51609
-1.49271
-1.47303
-1.45728
-1.44514
-1.43608
-1.42984
-1.42577
-1.42296
-1.42101
-1.42015
-1.42051
-1.42193
-1.42407
-1.42667
-1.42918
-1.43145
-1.43286
-1.43378
-26.1782
-26.1687
-26.1252
-25.9953
-25.6881
-25.0751
-24.0143
-22.4359
-20.4661
-18.412
-16.4321
-14.5824
-12.9346
-11.4694
-10.1456
-8.9772
-7.94556
-7.04737
-6.33344
-5.79018
-5.35
-4.96295
-4.62506
-4.32538
-4.05455
-3.82183
-3.62242
-3.44745
-3.29673
-3.15497
-3.00002
-2.82737
-2.65539
-2.49166
-2.33735
-2.19869
-2.07326
-1.95708
-1.85289
-1.7597
-1.67816
-1.61497
-1.56962
-1.53518
-1.50636
-1.4825
-1.46259
-1.44565
-1.43256
-1.42301
-1.41629
-1.41243
-1.41066
-1.4097
-1.40909
-1.40944
-1.41103
-1.41368
-1.41698
-1.42068
-1.42411
-1.42711
-1.42895
-1.4301
-26.6295
-26.6485
-26.6614
-26.6117
-26.3952
-25.8501
-24.7763
-23.0459
-20.8138
-18.5454
-16.4114
-14.4328
-12.7181
-11.2168
-9.85166
-8.66278
-7.61271
-6.68664
-5.98336
-5.48535
-5.08954
-4.7283
-4.41512
-4.13679
-3.87878
-3.66338
-3.4832
-3.32478
-3.19611
-3.0769
-2.93314
-2.75837
-2.58544
-2.42257
-2.26766
-2.132
-2.01041
-1.89547
-1.79351
-1.70175
-1.61976
-1.55989
-1.52143
-1.49367
-1.46938
-1.4496
-1.43319
-1.4187
-1.40821
-1.40128
-1.3968
-1.39536
-1.39603
-1.39694
-1.39749
-1.39894
-1.40175
-1.40564
-1.41012
-1.41497
-1.41937
-1.42313
-1.42539
-1.42676
-27.0578
-27.1085
-27.1856
-27.2314
-27.1308
-26.6866
-25.6232
-23.7196
-21.1531
-18.6489
-16.3635
-14.2423
-12.4726
-10.9506
-9.53876
-8.33698
-7.2719
-6.30154
-5.61159
-5.17534
-4.83411
-4.4952
-4.20803
-3.95272
-3.70301
-3.5055
-3.34611
-3.20211
-3.09817
-3.00664
-2.87475
-2.69205
-2.51673
-2.35506
-2.19755
-2.06567
-1.94909
-1.83421
-1.73487
-1.64456
-1.55992
-1.50335
-1.4734
-1.45335
-1.43319
-1.41752
-1.40471
-1.39219
-1.38427
-1.38005
-1.37759
-1.37864
-1.38198
-1.38478
-1.38621
-1.38864
-1.39267
-1.39782
-1.4035
-1.40954
-1.41498
-1.41951
-1.4222
-1.42376
-27.4591
-27.5441
-27.6922
-27.8483
-27.891
-27.5886
-26.5714
-24.4727
-21.4677
-18.712
-16.2905
-14.0023
-12.197
-10.6777
-9.20494
-8.00279
-6.93017
-5.88713
-5.21431
-4.86312
-4.58932
-4.26376
-4.00472
-3.77571
-3.52633
-3.34823
-3.21242
-3.07823
-3.00249
-2.94605
-2.82722
-2.62743
-2.44878
-2.28978
-2.12629
-1.99972
-1.89013
-1.77306
-1.67729
-1.5889
-1.49807
-1.4449
-1.42581
-1.41479
-1.39782
-1.38637
-1.3774
-1.36609
-1.36075
-1.35943
-1.35863
-1.36227
-1.36862
-1.37337
-1.37526
-1.3785
-1.38379
-1.39022
-1.39712
-1.40439
-1.41096
-1.41628
-1.41939
-1.42111
-27.8301
-27.9511
-28.1757
-28.4555
-28.6703
-28.5591
-27.641
-25.3291
-21.7317
-18.7222
-16.2004
-13.7003
-11.8902
-10.4093
-8.84503
-7.66357
-6.59861
-5.43517
-4.78599
-4.55276
-4.36285
-4.03244
-3.80574
-3.60941
-3.34667
-3.19145
-3.08428
-2.951
-2.90809
-2.89747
-2.79391
-2.56251
-2.38086
-2.228
-2.05261
-1.93409
-1.83485
-1.7114
-1.6211
-1.53602
-1.43325
-1.38389
-1.37905
-1.37879
-1.36316
-1.3562
-1.35162
-1.34022
-1.33765
-1.33963
-1.33982
-1.3462
-1.35607
-1.36287
-1.36456
-1.36848
-1.37513
-1.38286
-1.39098
-1.39952
-1.40735
-1.41346
-1.41695
-1.4188
-28.1683
-28.3261
-28.6306
-29.0453
-29.4608
-29.5984
-28.8556
-26.3245
-21.9041
-18.665
-16.1107
-13.3168
-11.5515
-10.1637
-8.44832
-7.32301
-6.29466
-4.93235
-4.31917
-4.24984
-4.16538
-3.79705
-3.61128
-3.45939
-3.16013
-3.0349
-2.96525
-2.81694
-2.81341
-2.86376
-2.77957
-2.49366
-2.31195
-2.17195
-1.97435
-1.86867
-1.78526
-1.64789
-1.56663
-1.48784
-1.36392
-1.31942
-1.33368
-1.34647
-1.32881
-1.32702
-1.32789
-1.31426
-1.31492
-1.32093
-1.32098
-1.33034
-1.34447
-1.35353
-1.35403
-1.35851
-1.3667
-1.37572
-1.38508
-1.39491
-1.40417
-1.41105
-1.41488
-1.41681
-28.472
-28.6662
-29.0519
-29.6094
-30.2521
-30.7036
-30.2422
-27.5135
-21.9216
-18.5243
-16.0542
-12.821
-11.1799
-9.96942
-7.99503
-6.985
-6.04542
-4.35752
-3.80434
-3.96187
-4.01198
-3.54914
-3.42104
-3.33429
-2.95997
-2.87818
-2.86118
-2.67062
-2.71613
-2.84842
-2.79114
-2.41482
-2.24083
-2.12552
-1.888
-1.8033
-1.74456
-1.58013
-1.51422
-1.44737
-1.28765
-1.25039
-1.29044
-1.31936
-1.29397
-1.29878
-1.30699
-1.28764
-1.2925
-1.30377
-1.30177
-1.31457
-1.334
-1.34566
-1.34344
-1.34849
-1.35854
-1.36882
-1.37939
-1.39052
-1.40146
-1.40907
-1.41318
-1.41512
-28.7399
-28.9693
-29.4351
-30.1391
-31.0312
-31.8661
-31.8292
-28.9787
-21.6876
-18.2831
-16.0868
-12.1645
-10.7748
-9.87061
-7.4512
-6.65355
-5.89233
-3.67774
-3.23027
-3.69863
-3.92394
-3.27384
-3.23436
-3.24749
-2.7351
-2.72084
-2.78143
-2.50367
-2.61316
-2.85553
-2.83875
-2.31634
-2.16607
-2.09506
-1.78794
-1.7378
-1.7177
-1.50408
-1.46419
-1.41928
-1.20067
-1.1755
-1.25034
-1.29965
-1.25719
-1.27139
-1.29015
-1.25941
-1.27032
-1.28888
-1.2817
-1.29873
-1.32487
-1.33971
-1.33249
-1.33832
-1.35071
-1.36216
-1.37391
-1.3863
-1.39928
-1.40753
-1.41183
-1.41372
-28.972
-29.2342
-29.7765
-30.626
-31.7826
-33.0702
-33.6433
-30.8451
-21.0575
-17.9253
-16.2976
-11.2715
-10.3363
-9.93424
-6.76148
-6.33264
-5.89766
-2.84252
-2.58489
-3.47226
-3.93134
-2.9468
-3.05031
-3.21939
-2.46795
-2.56248
-2.74049
-2.30347
-2.50076
-2.88957
-2.93725
-2.18328
-2.08624
-2.09057
-1.66537
-1.67199
-1.71223
-1.4132
-1.41687
-1.41056
-1.09722
-1.09335
-1.21465
-1.29041
-1.21611
-1.24472
-1.27922
-1.22805
-1.2483
-1.27732
-1.25997
-1.28263
-1.31732
-1.33632
-1.32065
-1.32789
-1.34333
-1.35573
-1.36861
-1.38217
-1.39772
-1.40645
-1.4108
-1.41258
-29.1687
-29.4605
-30.0733
-31.0623
-32.489
-34.2913
-35.7031
-33.2996
-19.8182
-17.4381
-16.8236
-10.0257
-9.86534
-10.2599
-5.83941
-6.02627
-6.15322
-1.77584
-1.85744
-3.29678
-4.07664
-2.53005
-2.86799
-3.28056
-2.13156
-2.40298
-2.76013
-2.0513
-2.37488
-2.95494
-3.10825
-1.99323
-2.00014
-2.12732
-1.50683
-1.60581
-1.73945
-1.29734
-1.37257
-1.43158
-0.968648
-1.00276
-1.18487
-1.29595
-1.16699
-1.21864
-1.27696
-1.19123
-1.22641
-1.2707
-1.23536
-1.26608
-1.31162
-1.33641
-1.30714
-1.31712
-1.33658
-1.34952
-1.36351
-1.37802
-1.39689
-1.40583
-1.41006
-1.41167
-29.3309
-29.6486
-30.324
-31.441
-33.1318
-35.4943
-38.0098
-36.6173
-17.6614
-16.8165
-17.867
-8.25328
-9.36592
-10.9924
-4.55449
-5.73847
-6.79165
-0.365225
-1.04201
-3.18684
-4.41936
-1.9667
-2.68706
-3.47568
-1.68557
-2.24287
-2.87214
-1.71977
-2.23193
-3.05507
-3.38289
-1.71334
-1.9072
-2.22787
-1.29227
-1.53947
-1.81586
-1.1413
-1.33164
-1.49737
-0.802167
-0.903068
-1.16263
-1.32228
-1.10422
-1.19312
-1.28743
-1.14545
-1.20467
-1.27135
-1.20604
-1.24896
-1.30799
-1.34124
-1.2908
-1.306
-1.3307
-1.3435
-1.3586
-1.37368
-1.39698
-1.40567
-1.40959
-1.41097
-29.4604
-29.7996
-30.528
-31.7569
-33.6926
-36.6337
-40.5322
-41.1969
-14.1487
-16.0687
-19.7178
-5.69935
-8.8466
-12.3384
-2.71564
-5.47371
-8.00092
1.5527
-0.143496
-3.15509
-5.04236
-1.17407
-2.50848
-3.86873
-1.07118
-2.0839
-3.12187
-1.26942
-2.07016
-3.19081
-3.80557
-1.29653
-1.80806
-2.42456
-0.992391
-1.47365
-1.96507
-0.922872
-1.29447
-1.62922
-0.579212
-0.794918
-1.14941
-1.37774
-1.01967
-1.1683
-1.31638
-1.08558
-1.1833
-1.28256
-1.16936
-1.23131
-1.30664
-1.3526
-1.26996
-1.29462
-1.32608
-1.33758
-1.35393
-1.36892
-1.39826
-1.40597
-1.40935
-1.41046
-29.5592
-29.9153
-30.6861
-32.007
-34.1551
-37.6539
-43.1855
-47.6067
-8.66751
-15.225
-22.7811
-1.99975
-8.32408
-14.5859
-0.0505546
-5.23741
-10.0421
4.21094
0.813624
-3.20765
-6.05994
-0.0351657
-2.33569
-4.54913
-0.204639
-1.9299
-3.57236
-0.644411
-1.89175
-3.35811
-4.4387
-0.67674
-1.70543
-2.7627
-0.565512
-1.40993
-2.2201
-0.610487
-1.26166
-1.85676
-0.273309
-0.681186
-1.14611
-1.47379
-0.901749
-1.14461
-1.37187
-1.00431
-1.16279
-1.30891
-1.12152
-1.21349
-1.30757
-1.37295
-1.24222
-1.2833
-1.32318
-1.33165
-1.34962
-1.36341
-1.40111
-1.40669
-1.40933
-1.41015
-29.6295
-29.998
-30.8001
-32.1904
-34.5064
-38.4937
-45.8025
-56.642
-0.377172
-14.3491
-27.6088
3.35423
-7.82779
-18.1286
3.81924
-5.03704
-13.2712
7.93568
1.77269
-3.33716
-7.62811
1.61163
-2.17612
-5.63923
1.03063
-1.78803
-4.30942
0.233025
-1.70606
-3.54453
-5.36873
0.236902
-1.60521
-3.30412
0.0464496
-1.35125
-2.62615
-0.160345
-1.23409
-2.22038
0.152601
-0.56843
-1.15231
-1.62601
-0.734472
-1.12306
-1.46487
-0.891433
-1.14407
-1.35654
-1.05714
-1.19638
-1.31052
-1.40567
-1.2043
-1.27266
-1.32263
-1.32548
-1.34589
-1.35671
-1.40608
-1.40776
-1.40951
-1.41004
-29.6739
-30.0504
-30.8727
-32.3087
-34.7393
-39.0933
-48.0952
-69.3953
11.8563
-13.5523
-34.9359
11.0572
-7.40625
-23.4931
9.40771
-4.88354
-18.1638
13.1751
2.62782
-3.51256
-9.95736
3.98479
-2.04319
-7.30285
2.79338
-1.67039
-5.44731
1.46934
-1.53411
-3.72445
-6.71362
1.56706
-1.51794
-4.13143
0.922619
-1.30262
-3.24382
0.48698
-1.21314
-2.77412
0.749434
-0.46881
-1.16524
-1.8554
-0.496181
-1.1054
-1.61007
-0.733007
-1.12876
-1.43365
-0.968878
-1.1817
-1.31472
-1.45534
-1.1517
-1.26381
-1.3252
-1.31876
-1.3431
-1.34821
-1.41394
-1.40909
-1.40994
-1.4102
-29.695
-30.0753
-30.9074
-32.3656
-34.8534
-39.4052
-49.6059
-87.3408
29.5359
-13.0126
-45.7208
22.0373
-7.13521
-31.3703
17.3977
-4.79335
-25.3447
20.5338
3.20173
-3.66512
-13.3281
7.37383
-1.95885
-9.75489
5.29534
-1.59615
-7.13516
3.20775
-1.41448
-3.8527
-8.63169
3.47631
-1.46066
-5.35258
2.16856
-1.27196
-4.1526
1.41044
-1.20094
-3.58884
1.58593
-0.402479
-1.17822
-2.18976
-0.158047
-1.09439
-1.8265
-0.510258
-1.11926
-1.55065
-0.846613
-1.17219
-1.31847
-1.52788
-1.07823
-1.25828
-1.33159
-1.31077
-1.34159
-1.33687
-1.4255
-1.41023
-1.41045
-1.41042
)
;

boundaryField
{
    left
    {
        type            calculated;
        value           nonuniform List<scalar> 
32
(
-20.1553
-20.2336
-20.3825
-20.5936
-20.8595
-21.1737
-21.5301
-21.923
-22.3467
-22.7957
-23.2645
-23.7475
-24.239
-24.7334
-25.225
-25.7084
-26.1782
-26.6295
-27.0578
-27.4591
-27.8301
-28.1683
-28.472
-28.7399
-28.972
-29.1687
-29.3309
-29.4604
-29.5592
-29.6295
-29.6739
-29.695
)
;
    }
    right
    {
        type            calculated;
        value           nonuniform List<scalar> 
32
(
-1.49637
-1.49517
-1.49293
-1.48983
-1.48603
-1.48169
-1.47696
-1.47197
-1.46683
-1.46166
-1.45653
-1.45152
-1.44669
-1.4421
-1.43779
-1.43378
-1.4301
-1.42676
-1.42376
-1.42111
-1.4188
-1.41681
-1.41512
-1.41372
-1.41258
-1.41167
-1.41097
-1.41046
-1.41015
-1.41004
-1.4102
-1.41042
)
;
    }
    interface
    {
        type            calculated;
        value           nonuniform List<scalar> 
64
(
-29.7
-30.0812
-30.9157
-32.3793
-34.8812
-39.4845
-50.0963
-97.8225
39.9507
-12.8342
-52.1127
28.4788
-7.04878
-36.0346
22.0901
-4.76657
-29.5956
24.8295
3.39097
-3.72425
-15.3139
9.36342
-1.93218
-11.2084
6.76126
-1.57279
-8.13762
4.22296
-1.37389
-3.8968
-9.75663
4.5988
-1.4421
-6.07684
2.899
-1.26231
-4.69101
1.95242
-1.19735
-4.07145
2.07394
-0.380737
-1.18359
-2.38713
0.0400861
-1.09096
-1.9552
-0.380115
-1.11632
-1.62057
-0.775516
-1.16913
-1.31994
-1.57068
-1.03538
-1.25657
-1.33579
-1.30633
-1.34119
-1.33031
-1.43229
-1.41067
-1.41069
-1.4105
)
;
    }
    bottom
    {
        type            calculated;
        value           nonuniform List<scalar> 
64
(
-20.1349
-20.0382
-19.8461
-19.5606
-19.1854
-18.7256
-18.1879
-17.5808
-16.9142
-16.1992
-15.4477
-14.6718
-13.8834
-13.0936
-12.3124
-11.5485
-10.8092
-10.1001
-9.42529
-8.78762
-8.1886
-7.62869
-7.10748
-6.62389
-6.17633
-5.76289
-5.38145
-5.02979
-4.7057
-4.40706
-4.13184
-3.87821
-3.64451
-3.42926
-3.23116
-3.04906
-2.88193
-2.72886
-2.589
-2.46156
-2.34579
-2.24096
-2.14637
-2.06131
-1.98509
-1.91704
-1.8565
-1.80284
-1.75547
-1.71381
-1.67733
-1.64552
-1.61793
-1.59414
-1.57374
-1.5564
-1.54179
-1.52963
-1.51968
-1.51171
-1.50555
-1.50106
-1.49813
-1.49668
)
;
    }
    defaultFaces
    {
        type            empty;
    }
}


// ************************************************************************* //
