/*--------------------------------*- C++ -*----------------------------------*\
| =========                 |                                                 |
| \\      /  F ield         | OpenFOAM: The Open Source CFD Toolbox           |
|  \\    /   O peration     | Version:  5.x                                   |
|   \\  /    A nd           | Web:      www.OpenFOAM.org                      |
|    \\/     M anipulation  |                                                 |
\*---------------------------------------------------------------------------*/
FoamFile
{
    version     2.0;
    format      ascii;
    class       volScalarField;
    location    "10.2";
    object      gradTx;
}
// * * * * * * * * * * * * * * * * * * * * * * * * * * * * * * * * * * * * * //

dimensions      [0 -1 0 1 0 0 0];

internalField   nonuniform List<scalar> 
2048
(
0.0222133
0.066393
0.10981
0.151886
0.191963
0.229314
0.263178
0.292825
0.317632
0.337149
0.351146
0.359629
0.362828
0.361163
0.355194
0.345574
0.332998
0.318162
0.30173
0.284311
0.266435
0.248546
0.231001
0.214068
0.19794
0.182741
0.168538
0.155351
0.143164
0.131929
0.12158
0.112036
0.103212
0.0950279
0.0874076
0.0802868
0.0736128
0.0673445
0.0614516
0.0559127
0.0507137
0.0458456
0.0413022
0.0370782
0.0331675
0.0295623
0.0262526
0.023226
0.0204687
0.0179651
0.0156991
0.013654
0.0118129
0.0101589
0.00867532
0.00734568
0.00615388
0.00508401
0.0041203
0.00324696
0.00244801
0.00170719
0.00100789
0.000333264
0.0658724
0.196906
0.325735
0.450667
0.56975
0.680798
0.781511
0.869671
0.94338
1.00127
1.04264
1.06753
1.07664
1.07125
1.05307
1.02406
0.9863
0.94189
0.892812
0.840876
0.787662
0.734485
0.682393
0.632177
0.584395
0.539406
0.497401
0.458433
0.422443
0.389286
0.358756
0.330611
0.304595
0.280462
0.257987
0.23698
0.217284
0.198778
0.181375
0.165012
0.14965
0.135264
0.121837
0.109354
0.0977997
0.0871502
0.0773758
0.0684401
0.0603013
0.0529135
0.0462285
0.0401967
0.0347678
0.0298919
0.0255195
0.0216021
0.0180919
0.0149421
0.0121062
0.00953752
0.00718904
0.00501256
0.00295885
0.000978229
0.10816
0.32338
0.535165
0.740806
0.937093
1.12035
1.28667
1.43222
1.55373
1.64884
1.71637
1.7564
1.7702
1.75997
1.72861
1.67948
1.61606
1.54187
1.4602
1.37407
1.28607
1.19835
1.11263
1.03016
0.951836
0.878216
0.809585
0.746007
0.687365
0.633401
0.583757
0.538017
0.495747
0.456532
0.419998
0.385829
0.353772
0.323631
0.295267
0.268584
0.243522
0.220047
0.198135
0.177769
0.158922
0.141559
0.12563
0.111075
0.0978249
0.0858031
0.0749298
0.0651234
0.0563015
0.048382
0.0412838
0.0349278
0.029236
0.0241323
0.0195411
0.0153869
0.0115929
0.00808056
0.00476834
0.00157594
0.149358
0.446699
0.739686
1.02472
1.29738
1.55241
1.7841
1.9868
2.15564
2.28716
2.37964
2.4333
2.45004
2.43317
2.38692
2.31611
2.22574
2.12078
2.00588
1.88523
1.76247
1.64056
1.52179
1.40787
1.29996
1.19876
1.10462
1.01759
0.937467
0.863853
0.796218
0.733953
0.676428
0.623048
0.573288
0.52671
0.482966
0.441797
0.403017
0.366507
0.332194
0.300042
0.27003
0.242142
0.216347
0.192597
0.170825
0.150945
0.13286
0.116462
0.10164
0.0882808
0.0762708
0.0654967
0.0558468
0.0472124
0.0394871
0.0325671
0.0263496
0.0207318
0.0156095
0.0108751
0.00641459
0.00211904
0.189625
0.567378
0.94029
1.30406
1.65306
1.98034
2.2781
2.53853
2.75485
2.92225
3.03848
3.10394
3.12142
3.0955
3.03197
2.93726
2.818
2.68066
2.53131
2.37538
2.21751
2.06143
1.91
1.76527
1.6286
1.50082
1.38226
1.27293
1.17251
1.08045
0.995993
0.918322
0.846586
0.779994
0.717864
0.659638
0.604884
0.553285
0.504622
0.458759
0.415623
0.375186
0.337441
0.302378
0.269969
0.240156
0.21285
0.18794
0.165297
0.144784
0.126258
0.109574
0.0945872
0.0811536
0.0691325
0.0583863
0.048782
0.0401898
0.032482
0.0255305
0.0192052
0.0133713
0.00788258
0.00260254
0.228997
0.685579
1.13741
1.57972
2.00574
2.40662
2.77209
3.09165
3.35614
3.55916
3.69785
3.77301
3.78854
3.75062
3.66685
3.54545
3.3948
3.223
3.03757
2.84523
2.65161
2.46121
2.27735
2.10236
1.93774
1.78432
1.64243
1.51195
1.39245
1.28316
1.18311
1.0912
1.00633
0.927498
0.853861
0.784746
0.719647
0.658201
0.600167
0.545403
0.493846
0.44549
0.400355
0.358448
0.319748
0.284186
0.251653
0.222007
0.195087
0.170722
0.148738
0.128957
0.111206
0.0953112
0.0811017
0.0684131
0.0570867
0.0469693
0.0379101
0.0297583
0.0223597
0.0155542
0.00916288
0.00302324
0.267394
0.801124
1.33094
1.85195
2.35629
2.83299
3.26876
3.6497
3.96366
4.20224
4.36199
4.44435
4.45474
4.40135
4.29385
4.14252
3.95757
3.74882
3.52535
3.29519
3.06503
2.84004
2.62394
2.41924
2.22744
2.04934
1.88517
1.73472
1.59737
1.47213
1.35774
1.25279
1.15589
1.06581
0.981521
0.902261
0.827461
0.756728
0.689807
0.626563
0.566957
0.51102
0.458812
0.410374
0.365694
0.324693
0.287235
0.253146
0.222226
0.19427
0.169071
0.146422
0.12612
0.107961
0.0917454
0.077283
0.0643907
0.0528942
0.0426224
0.0334043
0.0250632
0.017416
0.0102505
0.0033793
0.304625
0.913507
1.52027
2.12033
2.70488
3.26052
3.77022
4.21575
4.58106
4.85532
5.03452
5.12113
5.12267
5.04978
4.91464
4.72972
4.50724
4.25877
3.99504
3.72549
3.45786
3.19799
2.94988
2.71602
2.49785
2.29603
2.11067
1.94142
1.78747
1.64759
1.52017
1.40343
1.29562
1.19526
1.10117
1.01248
0.928596
0.849104
0.773752
0.702418
0.635099
0.571884
0.512893
0.458214
0.407853
0.361717
0.319637
0.281393
0.246748
0.215458
0.187284
0.161992
0.139348
0.119119
0.101079
0.0850078
0.0707024
0.0579693
0.0466207
0.036468
0.0273143
0.018955
0.011144
0.00366991
0.340391
1.02191
1.70429
2.38383
3.051
3.68966
4.27813
4.79252
5.21172
5.52189
5.71859
5.80595
5.79429
5.6974
5.53029
5.30787
5.04436
4.75318
4.44676
4.1361
3.83009
3.5351
3.25524
2.99288
2.7492
2.52465
2.31918
2.1323
1.96303
1.80986
1.67077
1.54352
1.42595
1.31629
1.2132
1.11576
1.02337
0.935612
0.852251
0.773182
0.698451
0.62822
0.562704
0.502057
0.446305
0.395333
0.348927
0.306818
0.268717
0.234345
0.203431
0.175713
0.150931
0.128825
0.109135
0.0916166
0.0760449
0.0622121
0.0499169
0.0389573
0.0291175
0.0201742
0.0118445
0.00389507
0.374295
1.12522
1.88141
2.6408
3.39352
4.12034
4.79379
5.38257
5.85888
6.2052
6.41697
6.50086
6.471
6.34509
6.1414
5.87734
5.56918
5.23212
4.88044
4.52689
4.18158
3.85135
3.54018
3.25008
2.98182
2.73555
2.51106
2.30772
2.12441
1.95934
1.81
1.67357
1.54739
1.42937
1.31804
1.21249
1.11212
1.01656
0.925584
0.839102
0.757215
0.680191
0.608372
0.542007
0.481145
0.425636
0.375204
0.329513
0.288222
0.251011
0.217582
0.18765
0.16093
0.137132
0.115964
0.0971517
0.080453
0.0656493
0.0525308
0.0408861
0.0304822
0.0210796
0.0123553
0.00405532
0.405857
1.22207
2.0496
2.88901
3.73063
4.55193
5.31821
5.98841
6.52583
6.90838
7.13209
7.20745
7.15365
6.99322
6.74809
6.43823
6.08174
5.69552
5.29584
4.89754
4.51212
4.14671
3.80488
3.48795
3.19614
2.92918
2.68672
2.46806
2.272
2.09646
1.93838
1.79415
1.6605
1.53502
1.41617
1.30307
1.19522
1.09229
0.99405
0.900442
0.811614
0.727967
0.650029
0.578179
0.512485
0.45274
0.398581
0.349592
0.305368
0.265553
0.229824
0.19788
0.169415
0.144106
0.121625
0.101666
0.0839698
0.0683148
0.0544873
0.0422725
0.0314209
0.0216801
0.0126814
0.00415166
0.434521
1.31086
2.20642
3.12562
4.05987
4.98325
5.85218
6.61265
7.21597
7.63453
7.86612
7.92681
7.8425
7.64165
7.35015
6.99035
6.58194
6.14322
5.6926
5.24763
4.82144
4.42119
4.04956
3.70694
3.39267
3.10606
2.84664
2.61375
2.40619
2.22168
2.05645
1.90588
1.76591
1.63382
1.50807
1.38791
1.27302
1.16311
1.05796
0.957487
0.861886
0.771727
0.68781
0.610691
0.540447
0.476773
0.419193
0.367185
0.320277
0.278081
0.240255
0.206489
0.176464
0.149823
0.126189
0.10522
0.0866453
0.0702475
0.0558154
0.0431376
0.0319482
0.021986
0.012829
0.00418549
0.459689
1.38981
2.34907
3.34722
4.37807
5.41256
6.39633
7.25821
7.93307
8.38674
8.62089
8.65956
8.53727
8.28976
7.947
7.53335
7.06964
6.57501
6.07027
5.57659
5.10921
4.67481
4.27459
3.90757
3.57205
3.26681
2.99137
2.74524
2.52738
2.33546
2.16483
2.00945
1.86427
1.72634
1.59422
1.46742
1.34588
1.22937
1.11763
1.01054
0.908279
0.811648
0.721839
0.639659
0.565159
0.497875
0.437184
0.382437
0.333082
0.288713
0.248979
0.213569
0.182162
0.154363
0.129732
0.107881
0.0885335
0.0714891
0.0565458
0.043504
0.0320801
0.0220091
0.0128055
0.00415866
0.480739
1.45705
2.47448
3.54989
4.68132
5.83743
6.95115
7.92842
8.68136
9.16813
9.39793
9.40578
9.23706
8.93645
8.53781
8.06676
7.54475
6.99078
6.4283
5.88373
5.37507
4.90768
4.48037
4.09053
3.73504
3.41209
3.12149
2.86297
2.63594
2.43825
2.26416
2.1056
1.95628
1.81317
1.6751
1.54197
1.41413
1.29139
1.17338
1.0599
0.951056
0.847898
0.752226
0.665194
0.586752
0.516195
0.452712
0.395499
0.343922
0.297574
0.256102
0.219211
0.186593
0.157812
0.132336
0.109721
0.0896911
0.0720831
0.0567104
0.0433948
0.0318333
0.0217619
0.0126194
0.00407359
0.497061
1.5107
2.57942
3.72921
4.96493
6.2547
7.51698
8.62734
9.46575
9.9818
10.1984
10.165
9.94035
9.58022
9.12149
8.59003
8.00734
7.39057
6.76604
6.16815
5.61863
5.12
4.66747
4.2566
3.88247
3.54265
3.23761
2.96742
2.73217
2.53045
2.35513
2.19517
2.04266
1.89491
1.75116
1.61189
1.47809
1.34948
1.22552
1.10591
0.990494
0.880632
0.779053
0.687395
0.605367
0.531887
0.465943
0.406537
0.352941
0.304788
0.261734
0.223504
0.189842
0.16026
0.13409
0.110813
0.0901757
0.0720732
0.0563409
0.042833
0.0312245
0.0212574
0.0122804
0.00393341
0.508094
1.54897
2.6606
3.88037
5.22334
6.66023
8.09398
9.36001
10.2921
10.8307
11.0229
10.9363
10.6449
10.2191
9.69685
9.10252
8.45777
7.77471
7.0827
6.4287
5.83951
5.31213
4.83654
4.40672
4.01535
3.65929
3.34042
3.05904
2.81626
2.61237
2.4385
2.27905
2.12413
1.97213
1.82284
1.67747
1.53801
1.40394
1.27436
1.14892
1.0269
0.90998
0.802364
0.706354
0.621149
0.545116
0.477055
0.415721
0.360283
0.310485
0.265983
0.226534
0.191986
0.161797
0.135087
0.111235
0.0900444
0.0715021
0.0554681
0.0418403
0.0302701
0.0205091
0.0117991
0.00374218
0.51336
1.57023
2.71484
3.99829
5.45012
7.04871
8.68201
10.1329
11.1673
11.7174
11.8717
11.7182
11.3477
10.851
10.2626
9.60351
8.89678
8.14399
7.3773
6.66384
6.03736
5.48466
4.98832
4.54196
4.13478
3.76278
3.43063
3.13831
2.88827
2.68421
2.5151
2.35829
2.20142
2.04538
1.89054
1.73891
1.59416
1.45505
1.32016
1.18932
1.06061
0.936039
0.822148
0.722151
0.634261
0.556047
0.48623
0.423231
0.366089
0.31479
0.268957
0.228375
0.193098
0.162517
0.135426
0.111063
0.0893518
0.0704109
0.0541218
0.0404371
0.0289859
0.019531
0.0111876
0.00350503
0.512505
1.5732
2.73924
4.07778
5.63795
7.41335
9.28039
10.9543
12.1
12.6436
12.7443
12.5087
12.0448
11.4734
10.8176
10.092
9.3257
8.49986
7.64849
6.8715
6.21197
5.6385
5.12358
4.66354
4.24203
3.85386
3.50902
3.20575
2.94804
2.746
2.58593
2.43408
2.27516
2.1152
1.95465
1.79631
1.64673
1.50309
1.36316
1.22754
1.09202
0.958853
0.838322
0.734869
0.64489
0.564842
0.493662
0.429257
0.370493
0.317828
0.270767
0.229091
0.193235
0.162519
0.135216
0.110374
0.0881488
0.0688384
0.0523306
0.0386413
0.0273865
0.018338
0.0104592
0.00322827
0.505321
1.55695
2.73138
4.11373
5.77863
7.74549
9.88752
11.8353
13.1008
13.6094
13.6395
13.306
12.7307
12.0837
11.361
10.5665
9.74663
8.84479
7.89438
7.04883
6.36338
5.77502
5.243
4.77284
4.33857
3.93313
3.57646
3.262
2.99513
2.7975
2.65216
2.50784
2.34587
2.18208
2.01555
1.84961
1.69593
1.54837
1.40351
1.26406
1.12165
0.978389
0.850701
0.744599
0.653263
0.571651
0.49955
0.434
0.373607
0.319723
0.271528
0.228728
0.192439
0.161906
0.134575
0.109241
0.08648
0.066821
0.0501218
0.0364682
0.0254847
0.0169458
0.00962891
0.00291941
0.491778
1.52108
2.68947
4.1014
5.86321
8.03416
10.5002
12.7906
14.1831
14.612
14.5556
14.1084
13.3986
12.6799
11.8925
11.0244
10.1627
9.18267
8.11217
7.19193
6.49212
5.89626
5.34697
4.87143
4.42611
4.00086
3.63398
3.30792
3.02871
2.83811
2.71534
2.58129
2.41378
2.24649
2.07369
1.89856
1.74197
1.59122
1.4412
1.29949
1.15011
0.994503
0.858972
0.751467
0.659665
0.576593
0.504104
0.437684
0.375515
0.320597
0.271366
0.227308
0.19073
0.160791
0.133638
0.107729
0.0843816
0.0643933
0.0475226
0.0339298
0.0232914
0.0153722
0.00871359
0.00258712
0.472027
1.46571
2.61254
4.03673
5.88221
8.2656
11.1126
13.8398
15.3636
15.6443
15.4908
14.9154
14.0385
13.2605
12.413
11.4613
10.5785
9.51945
8.29771
7.29544
6.59952
6.00515
5.43524
4.96113
4.5068
4.05681
3.68282
3.34474
3.04743
2.86668
2.77746
2.65659
2.47869
2.30892
2.12964
1.94257
1.78511
1.6321
1.47598
1.33454
1.17827
1.00688
0.862645
0.755663
0.664473
0.57972
0.507549
0.440565
0.376249
0.320577
0.270431
0.224824
0.188095
0.159305
0.132561
0.105893
0.0818794
0.0615885
0.0445605
0.0310343
0.0208141
0.0136375
0.00773241
0.00224104
0.446407
1.39155
2.50061
3.91667
5.82597
8.42283
11.7148
15.0097
16.6644
16.6914
16.4434
15.7288
14.6369
13.8252
12.9251
11.8697
11.0004
9.86401
8.4448
7.35207
6.68817
6.1059
5.5064
5.04418
4.58335
4.09981
3.72455
3.37432
3.04922
2.88135
2.84124
2.73649
2.53964
2.36994
2.18422
1.98057
1.82575
1.67162
1.50722
1.37011
1.20729
1.01498
0.861007
0.757496
0.668184
0.580971
0.510133
0.44295
0.375762
0.319796
0.268911
0.221225
0.184481
0.157602
0.131528
0.103763
0.0789862
0.0584411
0.0412651
0.0277849
0.0180564
0.0117656
0.00670712
0.00189149
0.415425
1.29989
2.35472
3.73953
5.68523
8.48532
12.2903
16.3357
18.1142
17.7275
17.4133
16.5543
15.1736
14.3765
13.4344
12.2366
11.4377
10.2293
8.54417
7.352
6.76263
6.20442
5.5571
5.12342
4.65943
4.12723
3.76129
3.39943
3.03105
2.87923
2.91041
2.82454
2.59449
2.43032
2.23869
2.01073
1.86453
1.71071
1.53363
1.40738
1.23877
1.01787
0.853063
0.757457
0.671473
0.580098
0.51215
0.445231
0.373883
0.318412
0.267054
0.216404
0.179782
0.15587
0.130764
0.101341
0.0757006
0.0549893
0.0376694
0.0241788
0.0150161
0.00978598
0.00566228
0.00154909
0.379738
1.19251
2.17704
3.50531
5.45183
8.42889
12.8128
17.8658
19.7509
18.7099
18.4038
17.4041
15.6193
14.9204
13.951
12.5414
11.9031
10.6337
8.5822
7.28224
6.83023
6.30894
5.58087
5.2027
4.74007
4.13423
3.79596
3.4242
2.98863
2.85604
2.99009
2.92541
2.63933
2.49123
2.29497
2.03013
1.9025
1.75079
1.55302
1.44793
1.27491
1.01416
0.837467
0.756309
0.675248
0.576553
0.513968
0.447923
0.370254
0.316617
0.265198
0.210176
0.173823
0.154351
0.130541
0.0985802
0.0720061
0.0512791
0.0338117
0.0202056
0.0116841
0.00773514
0.0046253
0.00122429
0.340111
1.07164
1.97075
3.216
5.11965
8.22621
13.2417
19.664
21.6253
19.5716
19.4243
18.2998
15.9308
15.4691
14.4915
12.7512
12.415
11.103
8.53911
7.12588
6.90219
6.43075
5.56661
5.28744
4.83232
4.11263
3.83265
3.45463
2.91604
2.80567
3.08729
3.04527
2.66761
2.55458
2.35604
2.03417
1.94135
1.79399
1.56175
1.4939
1.31874
1.00174
0.812455
0.755202
0.680726
0.569345
0.516082
0.451726
0.364248
0.314672
0.263803
0.202249
0.166345
0.153354
0.1312
0.0953606
0.0678732
0.0473685
0.0297376
0.0158452
0.00804172
0.00565982
0.00362621
0.000926736
0.297384
0.939837
1.73998
2.87571
4.68567
7.84784
13.5158
21.8149
23.806
20.2113
20.4946
19.2766
16.0442
16.0437
15.0822
12.8162
12.9988
11.6729
8.38666
6.86134
6.99497
6.58521
5.49642
5.3855
4.94612
4.04947
3.87721
3.49925
2.80522
2.7196
3.21154
3.19235
2.66908
2.62343
2.42636
2.01589
1.98378
1.84351
1.55421
1.54824
1.37437
0.97751
0.775774
0.75581
0.689539
0.55683
0.519184
0.457597
0.354842
0.312944
0.263503
0.192192
0.156984
0.153284
0.133163
0.0914643
0.0632646
0.0433334
0.0255021
0.0110654
0.00405872
0.00362047
0.00269675
0.000664659
0.252425
0.799844
1.48961
2.49071
4.1511
7.26448
13.5453
24.4295
26.3852
20.4802
21.6509
20.3887
15.8669
16.6782
15.7624
12.6618
13.6905
12.3912
8.08518
6.46169
7.13173
6.79294
5.34284
5.5083
5.09537
3.92503
3.93801
3.56987
2.64545
2.58624
3.37554
3.37757
2.62824
2.70266
2.51248
1.96497
2.03392
1.90405
1.52195
1.61506
1.44728
0.937093
0.724629
0.760487
0.703846
0.536456
0.524277
0.46685
0.340468
0.311965
0.265149
0.179383
0.145253
0.154667
0.136957
0.0865344
0.0581447
0.0392725
0.0211712
0.00581914
-0.000310205
0.00169607
0.00186891
0.000444205
0.206091
0.654458
1.22499
2.06927
3.52243
6.45056
13.2013
27.6515
29.4871
20.1653
22.9533
21.7158
15.2661
17.4245
16.5894
12.1803
14.5401
13.3212
7.57999
5.8941
7.34407
7.08144
5.06535
5.6725
5.29933
3.71035
4.02697
3.68238
2.42272
2.3901
3.59602
3.61544
2.5226
2.79983
2.62372
1.86643
2.09794
1.98233
1.45267
1.70006
1.54469
0.874375
0.655649
0.772439
0.726486
0.504421
0.532814
0.481273
0.318809
0.312516
0.269872
0.162961
0.130519
0.158179
0.14324
0.0800281
0.0524961
0.0353119
0.0168241
4.12352e-05
-0.00512896
-9.79701e-06
0.00117249
0.000268848
0.159189
0.506395
0.951677
1.62127
2.81218
5.38963
12.3032
31.6653
33.2782
18.9688
24.4963
23.3702
14.0553
18.3595
17.6446
11.2194
15.6171
14.5449
6.79709
5.11949
7.67374
7.48696
4.60606
5.90199
5.58426
3.36418
4.16093
3.85761
2.11902
2.11098
3.89458
3.92514
2.32028
2.92626
2.77306
1.69909
2.18483
2.0878
1.32897
1.81113
1.6759
0.781015
0.564882
0.795901
0.76116
0.455265
0.546894
0.503267
0.286548
0.315736
0.279139
0.141751
0.111991
0.164684
0.152824
0.0711581
0.0463445
0.0316084
0.012554
-0.00635459
-0.0104845
-0.0013613
0.000631565
0.000139033
0.112453
0.358176
0.675139
1.15762
2.03925
4.08196
10.6026
36.7035
37.98
16.4835
26.4217
25.5059
11.9766
19.593
19.0396
9.5689
17.0169
16.1664
5.63803
4.09265
8.17431
8.05688
3.88448
6.23054
5.98534
2.82918
4.3634
4.12222
1.7116
1.72294
4.29861
4.33185
1.97733
3.09849
2.97812
1.43362
2.30733
2.23341
1.12678
1.95908
1.85273
0.645847
0.447857
0.836304
0.812651
0.381378
0.569509
0.536
0.239069
0.32327
0.294814
0.114189
0.0887028
0.175268
0.166714
0.058822
0.039793
0.0283489
0.00846974
-0.0134787
-0.0164921
-0.00218113
0.000259851
5.22624e-05
0.0665166
0.212037
0.400452
0.689588
1.22834
2.55464
7.76598
43.0561
43.884
12.1636
28.9339
28.3279
8.68156
21.2776
20.9249
6.94459
18.8685
18.3152
3.97431
2.76285
8.91258
8.85257
2.79146
6.70493
6.54884
2.02762
4.66678
4.50937
1.17227
1.19333
4.84214
4.8684
1.43451
3.33995
3.26225
1.03026
2.48304
2.43649
0.813547
2.15859
2.08986
0.454215
0.299696
0.900417
0.887093
0.272422
0.604841
0.583587
0.170097
0.337442
0.319209
0.0782387
0.0595071
0.191267
0.186141
0.0415208
0.0330678
0.0257457
0.00469673
-0.0214678
-0.0233016
-0.00223957
5.47368e-05
3.90264e-06
0.0219087
0.0698694
0.132077
0.227913
0.40837
0.874477
3.35293
51.0792
51.3699
5.29127
32.3186
32.103
3.70785
23.6205
23.4981
2.97059
21.3444
21.1496
1.6411
1.07504
9.96963
9.95273
1.18235
7.38863
7.33448
0.8563
5.11499
5.05935
0.466676
0.481791
5.5667
5.5771
0.613573
3.68296
3.65575
0.436229
2.73584
2.71981
0.346217
2.42931
2.4052
0.187224
0.115316
0.99644
0.992273
0.114677
0.658623
0.651264
0.0712944
0.361486
0.355126
0.0312901
0.023079
0.214302
0.212604
0.0172663
0.0265768
0.0240268
0.00137804
-0.0304868
-0.0311042
-0.00124179
-9.8402e-06
-1.0923e-05
)
;

boundaryField
{
    left
    {
        type            calculated;
        value           uniform 0;
    }
    right
    {
        type            calculated;
        value           uniform 0;
    }
    interface
    {
        type            calculated;
        value           nonuniform List<scalar> 
64
(
0.0219087
0.0698694
0.132077
0.227913
0.40837
0.874477
3.35293
51.0792
51.3699
5.29127
32.3186
32.103
3.70785
23.6205
23.4981
2.97059
21.3444
21.1496
1.6411
1.07504
9.96963
9.95273
1.18235
7.38863
7.33448
0.8563
5.11499
5.05935
0.466676
0.481791
5.5667
5.5771
0.613573
3.68296
3.65575
0.436229
2.73584
2.71981
0.346217
2.42931
2.4052
0.187224
0.115316
0.99644
0.992273
0.114677
0.658623
0.651264
0.0712944
0.361486
0.355126
0.0312901
0.023079
0.214302
0.212604
0.0172663
0.0265768
0.0240268
0.00137804
-0.0304868
-0.0311042
-0.00124179
-9.8402e-06
-1.0923e-05
)
;
    }
    bottom
    {
        type            calculated;
        value           nonuniform List<scalar> 
64
(
0.0222133
0.066393
0.10981
0.151886
0.191963
0.229314
0.263178
0.292825
0.317632
0.337149
0.351146
0.359629
0.362828
0.361163
0.355194
0.345574
0.332998
0.318162
0.30173
0.284311
0.266435
0.248546
0.231001
0.214068
0.19794
0.182741
0.168538
0.155351
0.143164
0.131929
0.12158
0.112036
0.103212
0.0950279
0.0874076
0.0802868
0.0736128
0.0673445
0.0614516
0.0559127
0.0507137
0.0458456
0.0413022
0.0370782
0.0331675
0.0295623
0.0262526
0.023226
0.0204687
0.0179651
0.0156991
0.013654
0.0118129
0.0101589
0.00867532
0.00734568
0.00615388
0.00508401
0.0041203
0.00324696
0.00244801
0.00170719
0.00100789
0.000333264
)
;
    }
    defaultFaces
    {
        type            empty;
    }
}


// ************************************************************************* //
