/*--------------------------------*- C++ -*----------------------------------*\
| =========                 |                                                 |
| \\      /  F ield         | OpenFOAM: The Open Source CFD Toolbox           |
|  \\    /   O peration     | Version:  5.x                                   |
|   \\  /    A nd           | Web:      www.OpenFOAM.org                      |
|    \\/     M anipulation  |                                                 |
\*---------------------------------------------------------------------------*/
FoamFile
{
    version     2.0;
    format      ascii;
    class       volScalarField;
    location    "10.2";
    object      T;
}
// * * * * * * * * * * * * * * * * * * * * * * * * * * * * * * * * * * * * * //

dimensions      [0 0 0 1 0 0 0];

internalField   nonuniform List<scalar> 
2048
(
9.85535
9.85604
9.85742
9.85947
9.86217
9.86547
9.86933
9.87369
9.87848
9.88362
9.88902
9.89459
9.90026
9.90593
9.91154
9.91703
9.92234
9.92744
9.93229
9.93687
9.94117
9.94519
9.94894
9.95241
9.95563
9.9586
9.96134
9.96386
9.96619
9.96834
9.97032
9.97214
9.97382
9.97536
9.97679
9.97809
9.9793
9.9804
9.9814
9.98232
9.98315
9.9839
9.98458
9.98519
9.98574
9.98623
9.98666
9.98705
9.98739
9.98769
9.98795
9.98818
9.98838
9.98855
9.98869
9.98882
9.98892
9.98901
9.98908
9.98914
9.98918
9.98922
9.98924
9.98925
9.57179
9.57385
9.57794
9.58403
9.59203
9.60183
9.6133
9.62625
9.64048
9.65573
9.67177
9.68832
9.70513
9.72196
9.7386
9.75487
9.77061
9.78569
9.80004
9.81359
9.82632
9.83821
9.84927
9.85953
9.86903
9.87779
9.88588
9.89334
9.90021
9.90654
9.91237
9.91775
9.92271
9.92727
9.93147
9.93533
9.93888
9.94212
9.94509
9.94779
9.95024
9.95247
9.95447
9.95627
9.95789
9.95933
9.96061
9.96175
9.96275
9.96363
9.9644
9.96508
9.96566
9.96616
9.96659
9.96696
9.96727
9.96753
9.96774
9.9679
9.96803
9.96813
9.96819
9.96822
9.29908
9.30246
9.30918
9.31918
9.33233
9.34847
9.36734
9.38867
9.4121
9.43723
9.46363
9.49086
9.51851
9.54618
9.57351
9.6002
9.626
9.6507
9.67418
9.69634
9.71712
9.73652
9.75457
9.77129
9.78676
9.80104
9.81421
9.82634
9.83752
9.84782
9.85731
9.86606
9.87412
9.88155
9.88839
9.89468
9.90045
9.90573
9.91056
9.91496
9.91896
9.92257
9.92583
9.92876
9.93139
9.93373
9.93581
9.93765
9.93928
9.94071
9.94196
9.94305
9.944
9.94481
9.94551
9.9461
9.9466
9.94702
9.94736
9.94763
9.94784
9.94799
9.94809
9.94814
9.03595
9.04062
9.04991
9.06374
9.08194
9.10428
9.13045
9.16003
9.19254
9.2274
9.26401
9.30176
9.34005
9.37832
9.41609
9.45292
9.48846
9.52247
9.55474
9.58515
9.61365
9.64023
9.66492
9.68779
9.70892
9.72841
9.74638
9.76293
9.77818
9.79223
9.80517
9.81711
9.82811
9.83825
9.84758
9.85616
9.86404
9.87125
9.87784
9.88385
9.8893
9.89423
9.89867
9.90267
9.90624
9.90943
9.91226
9.91477
9.91698
9.91892
9.92062
9.92209
9.92338
9.92448
9.92542
9.92622
9.9269
9.92746
9.92792
9.92828
9.92856
9.92877
9.9289
9.92897
8.78139
8.78731
8.79912
8.8167
8.83987
8.86835
8.90175
8.93954
8.98108
9.02563
9.0724
9.12059
9.1694
9.21813
9.26614
9.31288
9.35792
9.40094
9.4417
9.48004
9.51593
9.54934
9.58035
9.60903
9.63551
9.65992
9.68241
9.70312
9.72219
9.73976
9.75595
9.77088
9.78465
9.79734
9.80903
9.81977
9.82964
9.83868
9.84693
9.85445
9.86127
9.86743
9.87299
9.87798
9.88244
9.88642
9.88995
9.89307
9.89582
9.89823
9.90034
9.90218
9.90377
9.90513
9.9063
9.90729
9.90813
9.90882
9.90938
9.90983
9.91018
9.91043
9.9106
9.91068
8.53452
8.54168
8.55595
8.57722
8.60531
8.6399
8.68052
8.72653
8.77714
8.83141
8.88836
8.94697
9.00627
9.06536
9.12347
9.17995
9.23427
9.28604
9.33499
9.38096
9.4239
9.46382
9.50081
9.53499
9.56651
9.59555
9.62227
9.64687
9.66952
9.69039
9.70962
9.72736
9.74372
9.75881
9.7727
9.78549
9.79723
9.80798
9.8178
9.82673
9.83484
9.84217
9.84876
9.85468
9.85996
9.86467
9.86884
9.87253
9.87578
9.87863
9.88112
9.88328
9.88515
9.88675
9.88812
9.88929
9.89026
9.89107
9.89173
9.89226
9.89266
9.89295
9.89315
9.89324
8.29467
8.30303
8.31971
8.34462
8.37758
8.41825
8.46611
8.5204
8.58017
8.64427
8.71149
8.78058
8.85037
8.91979
8.98791
9.05397
9.11737
9.17765
9.23452
9.28782
9.33749
9.3836
9.42624
9.4656
9.50185
9.5352
9.56589
9.59411
9.6201
9.64403
9.6661
9.68646
9.70525
9.72258
9.73856
9.75326
9.76675
9.77911
9.7904
9.80067
9.80998
9.81839
9.82595
9.83273
9.83877
9.84415
9.84892
9.85313
9.85683
9.86007
9.8629
9.86536
9.86748
9.8693
9.87085
9.87217
9.87327
9.87418
9.87492
9.87551
9.87596
9.87629
9.87651
9.87661
8.06127
8.07079
8.08982
8.1183
8.15608
8.20283
8.25797
8.32065
8.38971
8.4638
8.54144
8.62113
8.70148
8.78122
8.85928
8.9348
9.00709
9.07565
9.14017
9.20049
9.25659
9.30855
9.35653
9.40074
9.44141
9.47879
9.51316
9.54475
9.57383
9.60061
9.62531
9.64812
9.66917
9.6886
9.70652
9.72302
9.73816
9.75203
9.7647
9.77621
9.78665
9.79606
9.80452
9.81209
9.81884
9.82483
9.83014
9.83482
9.83894
9.84253
9.84567
9.84839
9.85073
9.85274
9.85445
9.8559
9.85711
9.85811
9.85892
9.85957
9.86006
9.86042
9.86065
9.86077
7.83387
7.8445
7.8658
7.89776
7.94029
7.99311
8.0556
8.1268
8.20536
8.28966
8.37792
8.46837
8.55936
8.64944
8.7374
8.82226
8.90327
8.9799
9.05181
9.11886
9.18106
9.23855
9.29153
9.34028
9.38506
9.42619
9.46396
9.49866
9.53059
9.56001
9.58715
9.61222
9.63539
9.65678
9.67652
9.69469
9.71139
9.72667
9.74062
9.75331
9.76479
9.77513
9.78442
9.79272
9.80011
9.80666
9.81246
9.81757
9.82205
9.82597
9.82937
9.83232
9.83486
9.83704
9.83889
9.84045
9.84175
9.84283
9.8437
9.84439
9.84491
9.8453
9.84554
9.84567
7.6121
7.6238
7.64727
7.68259
7.72979
7.78864
7.85855
7.93845
8.02676
8.12154
8.22067
8.32207
8.42382
8.52429
8.62211
8.71621
8.80577
8.89024
8.96928
9.04276
9.11074
9.17343
9.2311
9.28406
9.33266
9.37724
9.41815
9.45571
9.49026
9.5221
9.55149
9.57866
9.60379
9.62702
9.64846
9.66821
9.68635
9.70296
9.71812
9.73189
9.74434
9.75555
9.7656
9.77456
9.78253
9.7896
9.79584
9.80132
9.80613
9.81033
9.81398
9.81713
9.81984
9.82216
9.82413
9.82578
9.82716
9.8283
9.82921
9.82994
9.83049
9.83089
9.83115
9.83128
7.39572
7.4084
7.4339
7.47245
7.52419
7.58903
7.66643
7.75522
7.85357
7.95916
8.06946
8.18203
8.29469
8.40559
8.51323
8.61646
8.71442
8.80652
8.89241
8.97201
9.04546
9.11302
9.17504
9.23192
9.28404
9.3318
9.37558
9.41576
9.4527
9.48676
9.51822
9.54733
9.57429
9.59922
9.62226
9.64348
9.66298
9.68083
9.69711
9.71189
9.72525
9.73726
9.748
9.75757
9.76607
9.77358
9.78021
9.78604
9.79114
9.79558
9.79944
9.80277
9.80562
9.80806
9.81012
9.81186
9.8133
9.81448
9.81544
9.81619
9.81676
9.81717
9.81744
9.81757
7.1845
7.19808
7.22546
7.26703
7.32314
7.3939
7.47887
7.57678
7.68551
7.80228
7.92409
8.0481
8.1718
8.29317
8.41061
8.52287
8.62905
8.72855
8.82103
8.90645
8.98502
9.05712
9.12318
9.18367
9.23902
9.28969
9.33609
9.37864
9.41777
9.45384
9.48719
9.5181
9.54675
9.57329
9.59781
9.62041
9.64118
9.66019
9.67753
9.69326
9.70745
9.72019
9.73157
9.74168
9.75065
9.75857
9.76555
9.77167
9.77702
9.78168
9.78571
9.78919
9.79217
9.7947
9.79685
9.79865
9.80014
9.80136
9.80233
9.8031
9.80368
9.8041
9.80437
9.8045
6.97832
6.99269
7.02176
7.0661
7.12636
7.20291
7.2955
7.4028
7.52232
7.65071
7.7844
7.92011
8.05501
8.1869
8.31407
8.43524
8.54949
8.65617
8.75496
8.84586
8.92922
9.00553
9.07531
9.13911
9.19742
9.25073
9.29951
9.34422
9.3853
9.4232
9.45828
9.49085
9.52108
9.54911
9.57503
9.59892
9.62088
9.64098
9.6593
9.67591
9.69088
9.70429
9.71624
9.72685
9.73623
9.74451
9.75179
9.75817
9.76374
9.76858
9.77277
9.77636
9.77944
9.78206
9.78426
9.78611
9.78763
9.78888
9.78987
9.79064
9.79123
9.79165
9.79192
9.79205
6.7771
6.79212
6.82263
6.86945
6.93357
7.01574
7.11599
7.23297
7.36375
7.50426
7.65026
7.79794
7.94419
8.0866
8.22345
8.35341
8.47554
8.58918
8.694
8.79007
8.87786
8.95804
9.03123
9.09805
9.15906
9.21477
9.26569
9.31232
9.35515
9.39469
9.43135
9.46544
9.49715
9.52658
9.55381
9.57892
9.602
9.62312
9.64235
9.65978
9.67548
9.68951
9.70197
9.71301
9.72276
9.73135
9.73889
9.7455
9.75125
9.75624
9.76055
9.76425
9.7674
9.77008
9.77233
9.77421
9.77576
9.77702
9.77801
9.77879
9.77937
9.77978
9.78005
9.78018
6.58079
6.59633
6.628
6.67693
6.74454
6.83209
6.94
7.06699
7.20961
7.3628
7.52154
7.6815
7.83919
7.99213
8.13858
8.27718
8.40701
8.52741
8.63797
8.73885
8.83072
8.91443
8.99072
9.06029
9.12374
9.18162
9.23445
9.28279
9.32718
9.36817
9.40626
9.44177
9.47486
9.5056
9.53407
9.56033
9.58445
9.60652
9.62662
9.64482
9.66118
9.67577
9.6887
9.70011
9.71018
9.71903
9.7268
9.73359
9.7395
9.74462
9.74903
9.7528
9.75601
9.75873
9.76102
9.76292
9.76448
9.76574
9.76674
9.7675
9.76807
9.76848
9.76874
9.76886
6.3894
6.40528
6.4378
6.48842
6.55907
6.65165
6.7672
6.90459
7.0597
7.22621
7.39816
7.57068
7.73992
7.90333
8.05927
8.20636
8.34372
8.47067
8.58668
8.692
8.78758
8.87449
8.95358
9.02563
9.09129
9.15111
9.20564
9.2555
9.30124
9.3435
9.38288
9.41971
9.4541
9.48609
9.51572
9.54305
9.56815
9.59111
9.61202
9.63094
9.64792
9.66303
9.67636
9.6881
9.69843
9.70751
9.71547
9.72242
9.72846
9.73368
9.73816
9.74199
9.74524
9.74799
9.7503
9.75221
9.75377
9.75502
9.75601
9.75676
9.75732
9.7577
9.75796
9.75807
6.20294
6.21898
6.25201
6.30382
6.37696
6.47414
6.59723
6.74545
6.91388
7.09443
7.28005
7.46542
7.64624
7.82004
7.98534
8.14074
8.28545
8.41877
8.53995
8.64931
8.74819
8.83798
8.91959
8.99386
9.06152
9.12307
9.17911
9.23028
9.27718
9.32054
9.36106
9.39914
9.43476
9.46793
9.49868
9.52701
9.55302
9.57683
9.59849
9.61808
9.63566
9.65123
9.66491
9.67692
9.68747
9.69674
9.70485
9.71193
9.71808
9.72337
9.72791
9.73178
9.73505
9.73781
9.74013
9.74204
9.7436
9.74484
9.7458
9.74653
9.74706
9.74743
9.74767
9.74778
6.02146
6.03748
6.07062
6.12308
6.19805
6.29927
6.42972
6.58928
6.77204
6.9674
7.16716
7.36566
7.55805
7.74206
7.9166
8.08011
8.23197
8.37154
8.49759
8.61056
8.71233
8.80468
8.88853
8.96479
9.03426
9.09736
9.1547
9.20701
9.25488
9.29914
9.34069
9.37995
9.41676
9.45105
9.48286
9.51213
9.53899
9.56359
9.58596
9.60619
9.62432
9.64031
9.65429
9.66651
9.67725
9.68667
9.6949
9.70209
9.70832
9.71367
9.71825
9.72213
9.72541
9.72817
9.73049
9.7324
9.73394
9.73515
9.73609
9.73679
9.73729
9.73764
9.73787
9.73797
5.84502
5.86082
5.89368
5.94617
6.02223
6.12675
6.26428
6.43574
6.63413
6.84514
7.05943
7.27137
7.47524
7.66921
7.85285
8.02424
8.18306
8.32882
8.45946
8.57552
8.67973
8.77438
8.8602
8.93822
9.00935
9.0738
9.13226
9.18557
9.2342
9.27916
9.32162
9.36204
9.39999
9.43535
9.46818
9.49834
9.52598
9.55134
9.57437
9.5952
9.61387
9.63025
9.64445
9.65683
9.66772
9.67725
9.68558
9.69286
9.69914
9.70453
9.70913
9.71302
9.71628
9.71903
9.72134
9.72324
9.72475
9.72594
9.72684
9.72751
9.72798
9.7283
9.72851
9.7286
5.67369
5.68906
5.72122
5.7731
5.84939
5.95633
6.10046
6.28446
6.50017
6.72768
6.95679
7.18254
7.39768
7.60125
7.79393
7.97289
8.13844
8.29048
8.4254
8.54398
8.65015
8.74686
8.8344
8.91395
8.98664
9.05227
9.11166
9.16583
9.21504
9.26048
9.30373
9.34533
9.38439
9.42076
9.4546
9.48557
9.51393
9.54
9.56365
9.58504
9.60426
9.62098
9.63534
9.64782
9.65882
9.66844
9.67684
9.68419
9.69052
9.69593
9.70054
9.70441
9.70764
9.71037
9.71266
9.71454
9.71603
9.71718
9.71804
9.71867
9.7191
9.71939
9.71958
9.71967
5.50753
5.52228
5.55333
5.60392
5.67948
5.78774
5.93778
6.13501
6.37027
6.61512
6.85916
7.09921
7.32526
7.53791
7.73965
7.92582
8.09782
8.25639
8.3953
8.5157
8.62328
8.72193
8.81094
8.89178
8.96598
9.03262
9.09276
9.14771
9.19728
9.24294
9.28686
9.32974
9.36988
9.4072
9.44203
9.47375
9.50274
9.52953
9.55374
9.57566
9.59545
9.61248
9.62691
9.63943
9.65053
9.6602
9.66864
9.67606
9.68241
9.68782
9.69243
9.69627
9.69946
9.70215
9.70443
9.70629
9.70774
9.70885
9.70967
9.71024
9.71064
9.71089
9.71106
9.71113
5.34659
5.36054
5.39007
5.43868
5.51247
5.62074
5.77568
5.98683
6.24473
6.50759
6.76634
7.02145
7.25786
7.47885
7.6899
7.88276
8.06083
8.22652
8.36908
8.49042
8.59883
8.69943
8.78964
8.8715
8.94727
9.01473
9.07539
9.13112
9.18084
9.22641
9.27088
9.3152
9.3564
9.39456
9.43046
9.46282
9.49235
9.51988
9.54459
9.56698
9.5874
9.6047
9.61912
9.63161
9.64279
9.65249
9.66095
9.66843
9.67479
9.68018
9.68478
9.68858
9.6917
9.69434
9.69662
9.69845
9.69987
9.70092
9.70169
9.70221
9.70256
9.70278
9.70293
9.70299
5.19092
5.2039
5.23154
5.27749
5.3484
5.45515
5.61357
5.83922
6.12406
6.40529
6.67804
6.94946
7.19536
7.42363
7.64463
7.84345
8.02702
8.20088
8.34669
8.46789
8.57644
8.67922
8.77033
8.85288
8.93043
8.99849
9.05941
9.11603
9.16564
9.21075
9.25562
9.3017
9.34388
9.38277
9.41983
9.45273
9.48267
9.511
9.53613
9.55893
9.58011
9.59764
9.61192
9.6243
9.63559
9.64528
9.65371
9.66128
9.66763
9.67297
9.67758
9.68131
9.68434
9.68693
9.68921
9.69102
9.69238
9.69338
9.6941
9.69456
9.69485
9.69503
9.69516
9.69521
5.04056
5.05243
5.07782
5.12046
5.18737
5.29083
5.45077
5.69123
6.00908
6.30844
6.59376
6.88356
7.13764
7.37166
7.6039
7.80763
7.99582
8.17961
8.32812
8.4478
8.55569
8.66124
8.75284
8.83565
8.91543
8.98377
9.04462
9.1024
9.15163
9.19579
9.24088
9.28923
9.3323
9.37171
9.41015
9.44343
9.47359
9.50288
9.5283
9.55141
9.57355
9.59125
9.60524
9.61743
9.62888
9.63853
9.6469
9.65459
9.66089
9.66616
9.67079
9.67445
9.67736
9.67988
9.68218
9.68396
9.68526
9.68621
9.68686
9.68726
9.68749
9.68763
9.68774
9.68777
4.89552
4.90615
4.92901
4.96773
5.02951
5.12772
5.28658
5.54152
5.90108
6.21732
6.51269
6.82432
7.08456
7.32216
7.56797
7.77502
7.96644
8.16299
8.31341
8.42984
8.5361
8.64553
8.73706
8.81949
8.90229
8.9705
9.03081
9.09027
9.13877
9.18139
9.22644
9.27787
9.32161
9.36124
9.40144
9.43486
9.46501
9.49553
9.52107
9.54433
9.56775
9.58554
9.59906
9.61093
9.62266
9.63221
9.64045
9.64833
9.65457
9.65972
9.6644
9.66796
9.67072
9.67316
9.67551
9.67726
9.67849
9.67938
9.67997
9.68031
9.68047
9.68056
9.68064
9.68067
4.75579
4.76508
4.78516
4.81946
4.87503
4.96589
5.12027
5.38826
5.80199
6.13219
6.43359
6.77265
7.03598
7.27403
7.53735
7.74535
7.93786
8.15156
8.30264
8.41365
8.51705
8.63224
8.72284
8.804
8.89114
8.95857
9.01768
9.07973
9.12703
9.16739
9.21202
9.26775
9.31178
9.35116
9.39376
9.42699
9.45676
9.48898
9.51437
9.53755
9.56275
9.5805
9.5933
9.60474
9.61692
9.62629
9.63432
9.64251
9.64862
9.6536
9.6584
9.66184
9.66441
9.66674
9.6692
9.6709
9.67205
9.67288
9.67341
9.67368
9.67375
9.6738
9.67387
9.67389
4.62135
4.62924
4.64635
4.67579
4.72418
4.80551
4.9512
5.2288
5.71462
6.05334
6.35462
6.72993
6.99177
7.22577
7.51296
7.71834
7.90865
8.14617
8.29587
8.39883
8.4978
8.6217
8.71008
8.78866
8.88221
8.94789
9.00487
9.07096
9.11643
9.15363
9.19725
9.25911
9.3028
9.34125
9.38726
9.41976
9.44866
9.48332
9.50816
9.53088
9.55863
9.57611
9.58792
9.59875
9.61168
9.62075
9.62845
9.63713
9.64304
9.64777
9.65278
9.65606
9.65839
9.6606
9.66322
9.66488
9.66593
9.66669
9.66716
9.66736
9.66734
9.66735
9.66739
9.6674
4.49215
4.49859
4.5126
4.53687
4.57727
4.64695
4.77885
5.05949
5.64296
5.98096
6.27312
6.69825
6.95174
7.17532
7.49626
7.69374
7.87689
8.14812
8.29318
8.38499
8.47737
8.61449
8.69867
8.77279
8.87593
8.93839
8.99188
9.06423
9.10696
9.13994
9.18165
9.25232
9.29463
9.33115
9.38212
9.41314
9.44045
9.4787
9.5024
9.5241
9.55552
9.57237
9.58285
9.59286
9.60699
9.61556
9.62275
9.63221
9.63779
9.64217
9.64756
9.65061
9.65265
9.65469
9.65759
9.65916
9.66009
9.6608
9.6612
9.66133
9.6612
9.66117
9.6612
9.66121
4.36813
4.3731
4.38395
4.40284
4.43462
4.49072
4.60304
4.8752
5.59258
5.91514
6.18536
6.68065
6.91568
7.11988
7.48941
7.67127
7.84002
8.1593
8.29455
8.37171
8.45453
8.61152
8.6885
8.75546
8.87294
8.92997
8.97807
9.05999
9.09862
9.12621
9.16459
9.24792
9.28725
9.32043
9.37869
9.40709
9.43179
9.47536
9.49703
9.51689
9.55363
9.56926
9.57804
9.58692
9.60291
9.6107
9.61714
9.62779
9.63286
9.63675
9.64273
9.64547
9.64716
9.64897
9.65231
9.65375
9.65453
9.6552
9.65552
9.65559
9.65532
9.65526
9.65528
9.65528
4.24919
4.2527
4.26038
4.2738
4.29656
4.33753
4.42412
4.66886
5.5711
5.85573
6.08621
6.68141
6.88327
7.05568
7.49555
7.65067
7.79458
8.18245
8.29978
8.35863
8.42768
8.61408
8.67945
8.73547
8.87416
8.92251
8.96257
9.05887
9.09139
9.11236
9.14523
9.24669
9.2806
9.30848
9.37743
9.40155
9.42223
9.47365
9.49202
9.50886
9.55325
9.56676
9.57343
9.58076
9.59956
9.60615
9.61148
9.62395
9.62823
9.63142
9.63833
9.64063
9.6419
9.6434
9.64738
9.64861
9.64922
9.64986
9.6501
9.65012
9.64968
9.64961
9.64961
9.64961
4.13523
4.13731
4.14186
4.14983
4.16341
4.18821
4.24324
4.4309
5.58875
5.80227
5.96886
6.70646
6.85411
6.97776
7.51903
7.63166
7.73605
8.2213
8.3084
8.3455
8.39474
8.62401
8.67138
8.71125
8.88091
8.9159
8.94427
9.06174
9.08519
9.09837
9.12248
9.24969
9.27462
9.29452
9.37899
9.39646
9.41119
9.47406
9.48733
9.49948
9.55479
9.56479
9.56898
9.57415
9.59712
9.60187
9.60563
9.62078
9.62387
9.62609
9.63441
9.63607
9.63686
9.63793
9.64284
9.64374
9.64413
9.64478
9.64494
9.64492
9.64427
9.64419
9.6442
9.6442
4.02615
4.02683
4.02833
4.03096
4.03545
4.04372
4.06278
4.1485
5.659
5.75381
5.82435
6.76376
6.82757
6.87963
7.56571
7.61395
7.65854
8.28096
8.31947
8.33225
8.35306
8.6438
8.66409
8.68075
8.89498
8.90995
8.92174
9.06979
9.07984
9.08438
9.0949
9.25834
9.26919
9.27751
9.38428
9.39175
9.39791
9.47725
9.4829
9.48807
9.55882
9.56323
9.56467
9.56683
9.59581
9.59784
9.59939
9.61842
9.61974
9.62065
9.63104
9.63175
9.63202
9.63247
9.63872
9.63911
9.63926
9.63994
9.64001
9.63999
9.63905
9.63901
9.63901
9.63901
)
;

boundaryField
{
    left
    {
        type            zeroGradient;
    }
    right
    {
        type            zeroGradient;
    }
    interface
    {
        type            fixedValue;
        value           nonuniform List<scalar> 
64
(
3.9728
3.9728
3.9728
3.9728
3.9728
3.9728
3.9728
3.9728
5.73076
5.73076
5.73076
6.81491
6.81491
6.81491
7.60539
7.60539
7.60539
8.32556
8.32556
8.32556
8.32556
8.66062
8.66062
8.66062
8.90712
8.90712
8.90712
9.07738
9.07738
9.07738
9.07738
9.26659
9.26659
9.26659
9.38948
9.38948
9.38948
9.48075
9.48075
9.48075
9.56254
9.56254
9.56254
9.56254
9.59588
9.59588
9.59588
9.61774
9.61774
9.61774
9.62965
9.62965
9.62965
9.62965
9.63686
9.63686
9.63686
9.6376
9.6376
9.6376
9.63648
9.63648
9.63648
9.63648
)
;
    }
    bottom
    {
        type            fixedValue;
        value           uniform 10;
    }
    defaultFaces
    {
        type            empty;
    }
}


// ************************************************************************* //
