/*--------------------------------*- C++ -*----------------------------------*\
| =========                 |                                                 |
| \\      /  F ield         | OpenFOAM: The Open Source CFD Toolbox           |
|  \\    /   O peration     | Version:  5.x                                   |
|   \\  /    A nd           | Web:      www.OpenFOAM.org                      |
|    \\/     M anipulation  |                                                 |
\*---------------------------------------------------------------------------*/
FoamFile
{
    version     2.0;
    format      ascii;
    class       volScalarField;
    location    "9.5";
    object      T;
}
// * * * * * * * * * * * * * * * * * * * * * * * * * * * * * * * * * * * * * //

dimensions      [0 0 0 1 0 0 0];

internalField   nonuniform List<scalar> 
2048
(
9.85533
9.85603
9.85741
9.85946
9.86215
9.86545
9.86932
9.87368
9.87846
9.8836
9.88899
9.89457
9.90023
9.9059
9.91151
9.91699
9.9223
9.92739
9.93223
9.93681
9.9411
9.94512
9.94886
9.95233
9.95554
9.9585
9.96123
9.96375
9.96606
9.9682
9.97016
9.97197
9.97364
9.97517
9.97658
9.97787
9.97905
9.98013
9.98112
9.98202
9.98283
9.98356
9.98422
9.98481
9.98533
9.9858
9.98622
9.98658
9.9869
9.98718
9.98743
9.98764
9.98782
9.98798
9.98811
9.98822
9.98831
9.98839
9.98845
9.9885
9.98854
9.98857
9.98859
9.9886
9.57175
9.57381
9.57791
9.58399
9.59198
9.60179
9.61325
9.6262
9.64042
9.65567
9.67169
9.68823
9.70504
9.72186
9.73849
9.75475
9.77047
9.78554
9.79988
9.81341
9.82612
9.838
9.84904
9.85928
9.86875
9.8775
9.88556
9.89299
9.89983
9.90613
9.91193
9.91727
9.92218
9.9267
9.93085
9.93467
9.93816
9.94135
9.94426
9.9469
9.9493
9.95146
9.9534
9.95514
9.95669
9.95807
9.95929
9.96037
9.96131
9.96214
9.96286
9.96348
9.96401
9.96447
9.96486
9.96519
9.96547
9.96569
9.96588
9.96603
9.96614
9.96622
9.96627
9.9663
9.29902
9.3024
9.30912
9.31912
9.33226
9.34839
9.36726
9.38858
9.412
9.43712
9.4635
9.49073
9.51836
9.54602
9.57333
9.6
9.62577
9.65046
9.67391
9.69604
9.7168
9.73618
9.75419
9.77089
9.78632
9.80056
9.81368
9.82577
9.8369
9.84715
9.85658
9.86527
9.87327
9.88063
9.88739
9.89359
9.89928
9.90447
9.90921
9.91351
9.91741
9.92092
9.92408
9.92691
9.92944
9.93168
9.93366
9.9354
9.93694
9.93827
9.93944
9.94044
9.94131
9.94205
9.94268
9.94321
9.94366
9.94402
9.94432
9.94456
9.94474
9.94487
9.94496
9.945
9.03588
9.04054
9.04983
9.06365
9.08184
9.10418
9.13034
9.15991
9.1924
9.22725
9.26384
9.30157
9.33984
9.3781
9.41584
9.45264
9.48816
9.52214
9.55438
9.58476
9.61322
9.63976
9.66441
9.68723
9.70831
9.72775
9.74566
9.76216
9.77734
9.79131
9.80418
9.81603
9.82694
9.83698
9.84621
9.85468
9.86244
9.86953
9.87599
9.88187
9.88718
9.89197
9.89628
9.90013
9.90357
9.90661
9.90931
9.91168
9.91376
9.91557
9.91715
9.91851
9.91968
9.92069
9.92154
9.92225
9.92285
9.92335
9.92375
9.92407
9.92431
9.92449
9.9246
9.92466
8.78129
8.78721
8.79902
8.81659
8.83975
8.86823
8.90162
8.93939
8.98091
9.02545
9.07219
9.12035
9.16914
9.21785
9.26582
9.31253
9.35754
9.40052
9.44124
9.47955
9.51538
9.54875
9.57971
9.60833
9.63475
9.6591
9.68152
9.70215
9.72114
9.73862
9.75471
9.76954
9.78319
9.79575
9.80731
9.81791
9.82763
9.83651
9.84461
9.85196
9.85861
9.8646
9.86998
9.87479
9.87907
9.88287
9.88623
9.88918
9.89176
9.89402
9.89597
9.89766
9.89911
9.90035
9.90141
9.90229
9.90303
9.90364
9.90413
9.90452
9.90482
9.90504
9.90518
9.90525
8.53441
8.54157
8.55583
8.5771
8.60518
8.63976
8.68036
8.72635
8.77694
8.83119
8.88811
8.94669
9.00596
9.06502
9.1231
9.17954
9.23382
9.28554
9.33444
9.38037
9.42326
9.46312
9.50005
9.53416
9.56561
9.59457
9.62121
9.64572
9.66827
9.68903
9.70814
9.72575
9.74198
9.75692
9.77066
9.78327
9.79483
9.8054
9.81502
9.82376
9.83166
9.83878
9.84516
9.85086
9.85593
9.86042
9.86439
9.86787
9.87092
9.87357
9.87588
9.87786
9.87957
9.88102
9.88225
9.88329
9.88415
9.88485
9.88543
9.88588
9.88623
9.88648
9.88664
9.88672
8.29455
8.3029
8.31957
8.34448
8.37743
8.41809
8.46593
8.5202
8.57994
8.64402
8.7112
8.78027
8.85002
8.9194
8.98749
9.0535
9.11685
9.17708
9.2339
9.28714
9.33675
9.38279
9.42537
9.46465
9.50082
9.53408
9.56467
9.5928
9.61866
9.64247
9.66441
9.68462
9.70325
9.72041
9.7362
9.75071
9.764
9.77614
9.7872
9.79724
9.80631
9.81447
9.82178
9.82831
9.83411
9.83924
9.84376
9.84773
9.8512
9.85422
9.85683
9.85908
9.86101
9.86265
9.86404
9.8652
9.86617
9.86697
9.86761
9.86812
9.8685
9.86878
9.86896
9.86905
8.06113
8.07065
8.08967
8.11814
8.15591
8.20264
8.25777
8.32042
8.38946
8.46352
8.54113
8.62078
8.70109
8.78078
8.8588
8.93427
9.0065
9.07501
9.13947
9.19973
9.25576
9.30765
9.35555
9.39967
9.44025
9.47754
9.5118
9.54328
9.57222
9.59887
9.62342
9.64605
9.66693
9.68617
9.70388
9.72015
9.73506
9.74869
9.76109
9.77235
9.78251
9.79164
9.79981
9.8071
9.81356
9.81928
9.82431
9.82871
9.83256
9.8359
9.83879
9.84128
9.8434
9.84521
9.84673
9.84801
9.84907
9.84994
9.85064
9.85119
9.85161
9.85191
9.85211
9.8522
7.83372
7.84435
7.86564
7.89759
7.94011
7.99291
8.05538
8.12655
8.20509
8.28936
8.37758
8.46799
8.55893
8.64897
8.73688
8.82168
8.90263
8.9792
9.05104
9.11802
9.18015
9.23756
9.29046
9.33911
9.38379
9.42481
9.46246
9.49704
9.52883
9.55809
9.58507
9.60995
9.63292
9.6541
9.67361
9.69153
9.70797
9.72298
9.73664
9.74902
9.7602
9.77023
9.7792
9.78718
9.79425
9.80049
9.80598
9.81078
9.81496
9.81859
9.82172
9.82441
9.82671
9.82866
9.8303
9.83167
9.8328
9.83373
9.83447
9.83506
9.8355
9.83582
9.83603
9.83613
7.61195
7.62364
7.6471
7.68242
7.7296
7.78843
7.85832
7.93819
8.02647
8.12121
8.2203
8.32165
8.42336
8.52377
8.62154
8.71558
8.80508
8.88948
8.96844
9.04185
9.10975
9.17236
9.22993
9.2828
9.33129
9.37575
9.41653
9.45396
9.48836
9.52003
9.54924
9.57621
9.60112
9.62411
9.6453
9.66477
9.68263
9.69894
9.71377
9.72721
9.73933
9.75019
9.75989
9.7685
9.77612
9.78284
9.78873
9.79388
9.79836
9.80223
9.80558
9.80844
9.81089
9.81295
9.81469
9.81614
9.81733
9.8183
9.81908
9.81969
9.82016
9.82049
9.8207
9.82081
7.39555
7.40823
7.43373
7.47226
7.52399
7.58881
7.66619
7.75495
7.85326
7.95881
8.06907
8.18159
8.2942
8.40504
8.51262
8.61579
8.71368
8.8057
8.89152
8.97104
9.0444
9.11186
9.17379
9.23056
9.28257
9.3302
9.37385
9.41388
9.45066
9.48454
9.5158
9.5447
9.57142
9.5961
9.61886
9.63979
9.65897
9.67649
9.69243
9.70685
9.71983
9.73146
9.74182
9.75101
9.75912
9.76626
9.77251
9.77796
9.7827
9.7868
9.79032
9.79333
9.7959
9.79806
9.79987
9.80138
9.80262
9.80363
9.80443
9.80506
9.80553
9.80587
9.80609
9.80619
7.18433
7.19791
7.22528
7.26684
7.32293
7.39367
7.47861
7.57649
7.68519
7.80191
7.92368
8.04763
8.17128
8.29259
8.40996
8.52215
8.62826
8.72768
8.82008
8.90541
8.98389
9.05589
9.12185
9.18222
9.23746
9.28799
9.33425
9.37665
9.4156
9.45148
9.48463
9.51531
9.54371
9.56997
9.59419
9.61648
9.63691
9.65556
9.67252
9.68786
9.70165
9.71398
9.72495
9.73465
9.7432
9.7507
9.75727
9.76299
9.76795
9.77223
9.7759
9.77904
9.7817
9.78394
9.78581
9.78736
9.78864
9.78966
9.79048
9.79111
9.79159
9.79193
9.79215
9.79226
6.97815
6.99251
7.02157
7.0659
7.12614
7.20268
7.29523
7.4025
7.52198
7.65032
7.78397
7.91962
8.05447
8.18629
8.31339
8.43449
8.54865
8.65525
8.75395
8.84477
8.92803
9.00423
9.07391
9.13759
9.19578
9.24895
9.29758
9.34212
9.38302
9.42072
9.45559
9.48791
9.51787
9.54561
9.57121
9.59477
9.61636
9.63608
9.65399
9.67018
9.68472
9.69769
9.7092
9.71936
9.72829
9.73612
9.74296
9.74891
9.75405
9.75849
9.76228
9.76552
9.76825
9.77055
9.77247
9.77405
9.77534
9.77638
9.7772
9.77783
9.77831
9.77864
9.77886
9.77896
6.77693
6.79195
6.82245
6.86925
6.93335
7.0155
7.11572
7.23266
7.3634
7.50386
7.64981
7.79744
7.94361
8.08596
8.22274
8.35262
8.47466
8.58822
8.69295
8.78892
8.87662
8.95668
9.02976
9.09646
9.15734
9.21291
9.26367
9.31013
9.35278
9.3921
9.42853
9.46237
9.49379
9.52291
9.54981
9.57456
9.59725
9.61796
9.63676
9.65374
9.66897
9.68253
9.69452
9.70508
9.71435
9.72246
9.72953
9.73567
9.74097
9.74553
9.74942
9.75273
9.75552
9.75786
9.7598
9.7614
9.7627
9.76374
9.76455
9.76518
9.76564
9.76597
9.76618
9.76628
6.58062
6.59615
6.62782
6.67673
6.74432
6.83184
6.93973
7.06668
7.20925
7.36239
7.52107
7.68097
7.8386
7.99147
8.13783
8.27635
8.4061
8.52641
8.63687
8.73765
8.82942
8.91302
8.98919
9.05864
9.12195
9.17968
9.23235
9.28052
9.32472
9.36549
9.40333
9.43858
9.47137
9.50179
9.5299
9.55578
9.57948
9.60112
9.62076
9.63848
9.65435
9.66844
9.68086
9.69177
9.70132
9.70966
9.71693
9.72322
9.72866
9.73331
9.73728
9.74064
9.74346
9.74582
9.74778
9.74938
9.75068
9.75171
9.75251
9.75312
9.75357
9.75389
9.75409
9.75418
6.38922
6.4051
6.43762
6.48822
6.55884
6.6514
6.76692
6.90427
7.05934
7.2258
7.39768
7.57014
7.73931
7.90265
8.0585
8.2055
8.34277
8.46962
8.58554
8.69076
8.78622
8.87302
8.95199
9.02391
9.08944
9.1491
9.20348
9.25315
9.29869
9.34073
9.37985
9.4164
9.45048
9.48213
9.5114
9.53832
9.56298
9.58549
9.60591
9.62432
9.64078
9.65535
9.66815
9.67936
9.68915
9.69769
9.70511
9.71153
9.71706
9.72179
9.72581
9.7292
9.73204
9.73441
9.73637
9.73797
9.73925
9.74026
9.74104
9.74163
9.74206
9.74236
9.74255
9.74264
6.20276
6.2188
6.25182
6.30362
6.37674
6.47389
6.59695
6.74513
6.91351
7.09401
7.27956
7.46487
7.64561
7.81933
7.98454
8.13986
8.28447
8.41769
8.53876
8.64802
8.74679
8.83646
8.91795
8.99209
9.05961
9.12101
9.17688
9.22786
9.27456
9.31769
9.35795
9.39574
9.43104
9.46385
9.49421
9.52212
9.54767
9.57099
9.59214
9.6112
9.62822
9.64323
9.65635
9.66779
9.67778
9.68648
9.69402
9.70055
9.70615
9.71093
9.71498
9.71838
9.72123
9.72359
9.72554
9.72712
9.72838
9.72936
9.73012
9.73068
9.73108
9.73136
9.73154
9.73162
6.02129
6.0373
6.07044
6.12288
6.19784
6.29902
6.42944
6.58896
6.77167
6.96697
7.16666
7.3651
7.55741
7.74133
7.91578
8.0792
8.23096
8.37043
8.49637
8.60923
8.71089
8.80312
8.88684
8.96297
9.0323
9.09523
9.15241
9.20453
9.25219
9.29622
9.3375
9.37646
9.41293
9.44686
9.47826
9.50709
9.53348
9.55756
9.57939
9.59905
9.6166
9.63201
9.64539
9.65703
9.66717
9.67598
9.68362
9.69023
9.69588
9.70069
9.70475
9.70815
9.71098
9.71332
9.71525
9.71681
9.71804
9.71899
9.71971
9.72024
9.72061
9.72087
9.72103
9.7211
5.84485
5.86064
5.8935
5.94598
6.02202
6.12651
6.264
6.43542
6.63376
6.84471
7.05892
7.2708
7.47458
7.66846
7.85202
8.0233
8.18202
8.32768
8.4582
8.57416
8.67825
8.77278
8.85847
8.93635
9.00734
9.07163
9.12992
9.18303
9.23146
9.27618
9.31837
9.35848
9.39608
9.43106
9.46347
9.49317
9.52032
9.54513
9.5676
9.58782
9.60589
9.62165
9.63523
9.647
9.65726
9.66616
9.67387
9.68053
9.68621
9.69103
9.69509
9.69848
9.70127
9.70358
9.70548
9.70701
9.70821
9.70912
9.7098
9.71029
9.71062
9.71085
9.711
9.71106
5.67352
5.68889
5.72105
5.77291
5.84918
5.95609
6.10019
6.28414
6.49979
6.72725
6.95629
7.18196
7.39701
7.60049
7.79307
7.97193
8.13738
8.2893
8.42411
8.54258
8.64863
8.74522
8.83263
8.91204
8.98458
9.05005
9.10927
9.16325
9.21224
9.25744
9.30041
9.3417
9.38041
9.41638
9.44978
9.48027
9.50812
9.53363
9.55668
9.57745
9.59602
9.6121
9.62582
9.63767
9.64801
9.65697
9.66472
9.67142
9.67712
9.68193
9.68597
9.68932
9.69207
9.69434
9.69621
9.6977
9.69885
9.69972
9.70035
9.70079
9.70109
9.70129
9.70142
9.70147
5.50736
5.52211
5.55315
5.60373
5.67927
5.78751
5.93751
6.13469
6.3699
6.61468
6.85865
7.09862
7.32458
7.53714
7.73878
7.92484
8.09673
8.25519
8.39398
8.51426
8.62173
8.72025
8.80913
8.88983
8.96388
9.03036
9.09032
9.14508
9.19444
9.23986
9.2835
9.32605
9.36583
9.40274
9.43712
9.46835
9.4968
9.52301
9.5466
9.56785
9.58696
9.60332
9.61711
9.62897
9.63938
9.64836
9.65612
9.66285
9.66855
9.67333
9.67735
9.68065
9.68334
9.68556
9.6874
9.68885
9.68995
9.69076
9.69134
9.69174
9.69199
9.69216
9.69227
9.69231
5.34643
5.36037
5.3899
5.4385
5.51227
5.62052
5.77542
5.98652
6.24437
6.50716
6.76583
7.02085
7.25718
7.47807
7.68901
7.88176
8.05972
8.22529
8.36773
8.48896
8.59725
8.69771
8.7878
8.86952
8.94513
9.01243
9.07292
9.12846
9.17796
9.2233
9.26748
9.31146
9.35228
9.39004
9.42546
9.45732
9.4863
9.51321
9.53728
9.55898
9.57868
9.59529
9.60904
9.62085
9.63132
9.6403
9.64805
9.65481
9.66049
9.66523
9.66922
9.67245
9.67507
9.67722
9.67902
9.68043
9.68148
9.68224
9.68276
9.6831
9.68331
9.68344
9.68352
9.68356
5.19076
5.20374
5.23138
5.27731
5.34821
5.45493
5.61332
5.83892
6.12369
6.40485
6.67753
6.94885
7.19467
7.42284
7.64373
7.84244
8.02589
8.19962
8.34531
8.46639
8.57482
8.67747
8.76845
8.85086
8.92826
8.99615
9.0569
9.11332
9.16273
9.2076
9.25218
9.29791
9.33972
9.37818
9.41476
9.44715
9.47651
9.5042
9.52866
9.55074
9.57115
9.58797
9.60157
9.61326
9.6238
9.63276
9.64045
9.64726
9.6529
9.65757
9.66153
9.66469
9.66721
9.6693
9.67107
9.67244
9.67342
9.67411
9.67458
9.67486
9.67501
9.6751
9.67517
9.67519
5.04041
5.05227
5.07766
5.12029
5.18718
5.29062
5.45053
5.69093
6.00871
6.30801
6.59325
6.88295
7.13694
7.37086
7.60298
7.8066
7.99467
8.17832
8.32671
8.44628
8.55405
8.65947
8.75094
8.8336
8.91322
8.9814
9.04208
9.09966
9.14869
9.19262
9.23742
9.28541
9.32809
9.36707
9.40501
9.43777
9.46735
9.49596
9.5207
9.54306
9.56437
9.58134
9.59465
9.60613
9.61679
9.62569
9.63329
9.64017
9.64575
9.65033
9.65427
9.65735
9.65975
9.66175
9.66351
9.66483
9.66575
9.66637
9.66677
9.667
9.66709
9.66714
9.66719
9.6672
4.89537
4.906
4.92885
4.96757
5.02933
5.12752
5.28634
5.54124
5.90072
6.21688
6.51218
6.82371
7.08385
7.32135
7.56704
7.77398
7.96527
8.16168
8.31198
8.42829
8.53443
8.64373
8.73512
8.81741
8.90005
8.9681
9.02824
9.08751
9.13581
9.17821
9.22297
9.27401
9.31736
9.35656
9.39623
9.42913
9.45869
9.48849
9.51333
9.53583
9.55834
9.57538
9.58824
9.5994
9.61028
9.61906
9.62652
9.63354
9.63902
9.64347
9.64742
9.6504
9.65266
9.65457
9.65633
9.6576
9.65845
9.65899
9.65933
9.65949
9.65951
9.65953
9.65956
9.65956
4.75565
4.76494
4.78501
4.8193
4.87486
4.9657
5.12005
5.38798
5.80163
6.13177
6.43308
6.77203
7.03527
7.27322
7.53641
7.74429
7.93667
8.15022
8.30117
8.41208
8.51537
8.63041
8.72088
8.8019
8.88886
8.95614
9.01509
9.07694
9.12406
9.1642
9.20854
9.26386
9.30751
9.34645
9.3885
9.4212
9.45038
9.48183
9.50652
9.52891
9.55311
9.57009
9.58226
9.59299
9.60426
9.61285
9.6201
9.62734
9.63269
9.63697
9.64097
9.64382
9.64591
9.64771
9.64951
9.65073
9.6515
9.65195
9.65223
9.65233
9.65227
9.65225
9.65226
9.65226
4.62121
4.6291
4.6462
4.67564
4.72402
4.80533
4.95099
5.22854
5.71427
6.05292
6.35412
6.72931
6.99106
7.22496
7.51201
7.71728
7.90745
8.1448
8.29438
8.39724
8.4961
8.61984
8.70809
8.78654
8.87991
8.94544
9.00226
9.06814
9.11343
9.15044
9.19378
9.25519
9.2985
9.33652
9.38192
9.41392
9.44224
9.47606
9.50021
9.52213
9.54875
9.56546
9.57668
9.58681
9.59874
9.60704
9.61395
9.62158
9.62673
9.63077
9.63491
9.6376
9.63948
9.64116
9.64304
9.6442
9.64488
9.64524
9.64546
9.6455
9.64535
9.64528
9.64529
9.64528
4.49202
4.49846
4.51247
4.53673
4.57712
4.64678
4.77866
5.05925
5.64261
5.98054
6.27263
6.69763
6.95103
7.17451
7.49529
7.69266
7.87569
8.14671
8.29166
8.38338
8.47566
8.61261
8.69666
8.77065
8.8736
8.93592
8.98926
9.06139
9.10395
9.13676
9.17819
9.24836
9.29031
9.32642
9.37673
9.40726
9.43401
9.47132
9.49435
9.51528
9.54537
9.56148
9.57142
9.58077
9.59375
9.60159
9.60802
9.61628
9.62112
9.62483
9.62922
9.63172
9.63335
9.63488
9.63691
9.638
9.63857
9.63884
9.63899
9.63899
9.63872
9.63862
9.63861
9.63861
4.368
4.37297
4.38382
4.4027
4.43447
4.49057
4.60287
4.87497
5.59223
5.91472
6.18487
6.68001
6.91496
7.11907
7.48843
7.67018
7.83882
8.15786
8.293
8.37009
8.45281
8.6096
8.68647
8.75331
8.87056
8.92747
8.97544
9.05712
9.0956
9.12305
9.16117
9.24391
9.28291
9.31572
9.37321
9.40117
9.42536
9.46785
9.48891
9.50804
9.54318
9.55813
9.56645
9.57471
9.58937
9.59648
9.60221
9.61146
9.61584
9.61911
9.62393
9.62615
9.6275
9.62884
9.63112
9.63211
9.63256
9.63273
9.63283
9.63278
9.63236
9.63225
9.63223
9.63223
4.24906
4.25258
4.26025
4.27367
4.29642
4.33738
4.42396
4.66866
5.57075
5.85532
6.08574
6.68076
6.88255
7.05489
7.49454
7.64957
7.79339
8.18095
8.2982
8.357
8.42596
8.61212
8.67741
8.73333
8.87174
8.92
8.95994
9.05595
9.08835
9.10921
9.14187
9.24262
9.27625
9.30381
9.37186
9.39561
9.41585
9.46598
9.48384
9.50004
9.54246
9.55537
9.56169
9.56849
9.58568
9.59169
9.59641
9.60717
9.61087
9.61353
9.61904
9.62089
9.6219
9.62299
9.62567
9.62651
9.62684
9.62688
9.62694
9.62686
9.62627
9.62615
9.62613
9.62612
4.13511
4.13719
4.14174
4.1497
4.16328
4.18808
4.2431
4.43072
5.58838
5.80187
5.96841
6.70579
6.85339
6.97698
7.51799
7.63056
7.73488
8.21975
8.30678
8.34385
8.39303
8.62201
8.66931
8.70911
8.87845
8.91336
8.94166
9.05877
9.08214
9.09525
9.11921
9.24553
9.27026
9.28993
9.37329
9.3905
9.40491
9.46618
9.47908
9.49076
9.54358
9.55314
9.55711
9.5619
9.58285
9.58718
9.5905
9.60352
9.60618
9.60802
9.61459
9.61592
9.61654
9.61731
9.62058
9.62119
9.62138
9.62129
9.62132
9.62124
9.62041
9.6203
9.62029
9.62029
4.02603
4.02671
4.02821
4.03084
4.03533
4.0436
4.06265
4.14836
5.65862
5.75341
5.82393
6.76306
6.82685
6.87889
7.56464
7.61285
7.65741
8.27934
8.31782
8.33059
8.35138
8.64174
8.662
8.67863
8.89246
8.90739
8.91915
9.06677
9.07678
9.08129
9.09175
9.25405
9.26482
9.27304
9.37841
9.38577
9.39179
9.46911
9.47461
9.47956
9.54711
9.55132
9.55269
9.55468
9.58108
9.58293
9.5843
9.6006
9.60174
9.60248
9.61063
9.6112
9.61141
9.61173
9.61585
9.61612
9.61618
9.61594
9.61594
9.6159
9.61476
9.61471
9.61471
9.6147
)
;

boundaryField
{
    left
    {
        type            zeroGradient;
    }
    right
    {
        type            zeroGradient;
    }
    interface
    {
        type            fixedValue;
        value           nonuniform List<scalar> 
64
(
3.97269
3.97269
3.97269
3.97269
3.97269
3.97269
3.97269
3.97269
5.73036
5.73036
5.73036
6.81419
6.81419
6.81419
7.60428
7.60428
7.60428
8.32389
8.32389
8.32389
8.32389
8.65852
8.65852
8.65852
8.90456
8.90456
8.90456
9.07431
9.07431
9.07431
9.07431
9.26223
9.26223
9.26223
9.3835
9.3835
9.3835
9.47244
9.47244
9.47244
9.55051
9.55051
9.55051
9.55051
9.58087
9.58087
9.58087
9.59958
9.59958
9.59958
9.6089
9.6089
9.6089
9.6089
9.61364
9.61364
9.61364
9.61332
9.61332
9.61332
9.61198
9.61198
9.61198
9.61198
)
;
    }
    bottom
    {
        type            fixedValue;
        value           uniform 10;
    }
    defaultFaces
    {
        type            empty;
    }
}


// ************************************************************************* //
