/*--------------------------------*- C++ -*----------------------------------*\
| =========                 |                                                 |
| \\      /  F ield         | OpenFOAM: The Open Source CFD Toolbox           |
|  \\    /   O peration     | Version:  5.x                                   |
|   \\  /    A nd           | Web:      www.OpenFOAM.org                      |
|    \\/     M anipulation  |                                                 |
\*---------------------------------------------------------------------------*/
FoamFile
{
    version     2.0;
    format      ascii;
    class       volScalarField;
    location    "1.8";
    object      gradTy;
}
// * * * * * * * * * * * * * * * * * * * * * * * * * * * * * * * * * * * * * //

dimensions      [0 -1 0 1 0 0 0];

internalField   nonuniform List<scalar> 
2048
(
-22.5666
-22.4939
-22.3496
-22.1355
-21.855
-21.5126
-21.1141
-20.6667
-20.1791
-19.6604
-19.1206
-18.5694
-18.0161
-17.4694
-16.9367
-16.424
-15.9363
-15.477
-15.0484
-14.6516
-14.2869
-13.9538
-13.6512
-13.3775
-13.131
-12.9096
-12.7114
-12.5343
-12.3763
-12.2356
-12.1103
-11.9989
-11.9
-11.8121
-11.7341
-11.665
-11.6038
-11.5496
-11.5018
-11.4596
-11.4224
-11.3896
-11.3608
-11.3356
-11.3134
-11.294
-11.277
-11.2621
-11.249
-11.2374
-11.2273
-11.2184
-11.2106
-11.2036
-11.1975
-11.1922
-11.1875
-11.1834
-11.18
-11.1771
-11.1748
-11.173
-11.1719
-11.1713
-22.625
-22.5515
-22.4055
-22.1889
-21.9047
-21.5575
-21.153
-20.6988
-20.2036
-19.677
-19.1292
-18.5703
-18.0101
-17.4574
-16.9196
-16.403
-15.9125
-15.4513
-15.0217
-14.6246
-14.2603
-13.9281
-13.6267
-13.3544
-13.1095
-12.8897
-12.6931
-12.5176
-12.3611
-12.2218
-12.0978
-11.9876
-11.8897
-11.8028
-11.7256
-11.6573
-11.5967
-11.5432
-11.4959
-11.4541
-11.4174
-11.385
-11.3566
-11.3317
-11.3098
-11.2907
-11.2739
-11.2592
-11.2462
-11.2349
-11.2249
-11.2161
-11.2084
-11.2016
-11.1955
-11.1902
-11.1855
-11.1815
-11.178
-11.1752
-11.1729
-11.1711
-11.17
-11.1694
-22.736
-22.6611
-22.5121
-22.2906
-21.9995
-21.6432
-21.2275
-20.7601
-20.2503
-19.7083
-19.1451
-18.5716
-17.9982
-17.4338
-16.8865
-16.3625
-15.8666
-15.4019
-14.9705
-14.5732
-14.2097
-13.8792
-13.5801
-13.3106
-13.0687
-12.8521
-12.6586
-12.4861
-12.3324
-12.1958
-12.0742
-11.9662
-11.8703
-11.7852
-11.7096
-11.6427
-11.5834
-11.531
-11.4847
-11.4439
-11.4079
-11.3763
-11.3486
-11.3243
-11.303
-11.2843
-11.268
-11.2537
-11.2411
-11.2301
-11.2204
-11.2118
-11.2043
-11.1976
-11.1917
-11.1865
-11.1819
-11.1779
-11.1744
-11.1716
-11.1693
-11.1675
-11.1664
-11.1658
-22.8937
-22.8169
-22.6637
-22.4356
-22.135
-21.7658
-21.334
-20.8477
-20.3167
-19.7524
-19.167
-18.5724
-17.9798
-17.399
-16.8381
-16.3037
-15.8003
-15.3309
-14.8973
-14.4997
-14.1376
-13.8097
-13.5142
-13.2488
-13.0112
-12.7991
-12.61
-12.4418
-12.2922
-12.1593
-12.0412
-11.9363
-11.8432
-11.7606
-11.6872
-11.6223
-11.5648
-11.5139
-11.469
-11.4295
-11.3947
-11.3642
-11.3374
-11.314
-11.2934
-11.2755
-11.2598
-11.246
-11.234
-11.2234
-11.214
-11.2058
-11.1985
-11.1921
-11.1863
-11.1812
-11.1767
-11.1728
-11.1694
-11.1665
-11.1642
-11.1625
-11.1613
-11.1607
-23.0928
-23.0138
-22.8559
-22.6199
-22.3075
-21.9223
-21.4701
-20.9592
-20.4008
-19.8075
-19.1932
-18.5713
-17.9542
-17.3524
-16.7746
-16.2272
-15.7147
-15.2398
-14.8037
-14.4062
-14.0463
-13.722
-13.4311
-13.1711
-12.9392
-12.7328
-12.5495
-12.3867
-12.2422
-12.114
-12.0003
-11.8993
-11.8097
-11.7301
-11.6595
-11.597
-11.5416
-11.4927
-11.4496
-11.4116
-11.3783
-11.3491
-11.3235
-11.3011
-11.2816
-11.2645
-11.2496
-11.2365
-11.2251
-11.215
-11.2062
-11.1983
-11.1914
-11.1852
-11.1797
-11.1747
-11.1703
-11.1664
-11.1631
-11.1602
-11.1579
-11.1561
-11.1549
-11.1543
-23.3287
-23.2474
-23.0846
-22.84
-22.5144
-22.1104
-21.6336
-21.093
-20.5009
-19.872
-19.2223
-18.5671
-17.9203
-17.2935
-16.6957
-16.1333
-15.6105
-15.1295
-14.6911
-14.2943
-13.9375
-13.618
-13.3331
-13.0797
-12.8547
-12.6553
-12.4787
-12.3225
-12.1841
-12.0615
-11.9528
-11.8564
-11.7708
-11.6948
-11.6274
-11.5676
-11.5148
-11.4682
-11.427
-11.3909
-11.3592
-11.3315
-11.3073
-11.2862
-11.2677
-11.2517
-11.2377
-11.2254
-11.2147
-11.2053
-11.197
-11.1896
-11.1831
-11.1772
-11.1719
-11.1671
-11.1629
-11.1591
-11.1557
-11.1529
-11.1505
-11.1487
-11.1475
-11.1469
-23.597
-23.5137
-23.3462
-23.093
-22.7533
-22.3285
-21.8235
-21.2479
-20.6157
-19.9444
-19.2526
-18.5583
-17.877
-17.2215
-16.601
-16.022
-15.4881
-15.0011
-14.5608
-14.1656
-13.813
-13.4996
-13.222
-12.9764
-12.7596
-12.5683
-12.3996
-12.2507
-12.1193
-12.003
-11.9001
-11.8087
-11.7276
-11.6556
-11.5917
-11.535
-11.485
-11.4408
-11.4019
-11.3678
-11.338
-11.3119
-11.2892
-11.2695
-11.2524
-11.2375
-11.2245
-11.2131
-11.2032
-11.1945
-11.1868
-11.1799
-11.1738
-11.1683
-11.1633
-11.1587
-11.1546
-11.1508
-11.1475
-11.1446
-11.1422
-11.1403
-11.1391
-11.1384
-23.8937
-23.809
-23.6376
-23.3765
-23.0226
-22.5754
-22.0389
-21.423
-20.7442
-20.0232
-19.2825
-18.5431
-17.8228
-17.1352
-16.49
-15.8932
-15.3479
-14.8551
-14.4138
-14.0214
-13.6743
-13.3685
-13.0995
-12.8631
-12.6556
-12.4735
-12.3135
-12.173
-12.0492
-11.9399
-11.8432
-11.7574
-11.6811
-11.6134
-11.5532
-11.4999
-11.4528
-11.4113
-11.3748
-11.3428
-11.315
-11.2907
-11.2697
-11.2515
-11.2357
-11.222
-11.2102
-11.1998
-11.1908
-11.1828
-11.1758
-11.1695
-11.1638
-11.1587
-11.1539
-11.1496
-11.1455
-11.1419
-11.1385
-11.1356
-11.1331
-11.1312
-11.1299
-11.1292
-24.2147
-24.1295
-23.9559
-23.6884
-23.3212
-22.8509
-22.2797
-21.6181
-20.8853
-20.107
-19.3102
-18.5199
-17.7562
-17.0337
-16.3621
-15.7468
-15.1902
-14.6923
-14.251
-13.8628
-13.523
-13.2262
-12.9673
-12.7414
-12.5443
-12.3723
-12.222
-12.0905
-11.9751
-11.8734
-11.7833
-11.7034
-11.6322
-11.5689
-11.5126
-11.4628
-11.4187
-11.38
-11.346
-11.3164
-11.2906
-11.2683
-11.249
-11.2324
-11.2181
-11.2057
-11.195
-11.1857
-11.1776
-11.1704
-11.1641
-11.1584
-11.1532
-11.1485
-11.144
-11.1399
-11.136
-11.1323
-11.129
-11.126
-11.1234
-11.1214
-11.12
-11.1193
-24.556
-24.4716
-24.298
-24.0268
-23.6482
-23.1548
-22.5462
-21.833
-21.0385
-20.1944
-19.3339
-18.4867
-17.6754
-16.9157
-16.2166
-15.5828
-15.0153
-14.5132
-14.0734
-13.6911
-13.3602
-13.0742
-12.8269
-12.6127
-12.4271
-12.2661
-12.1262
-12.0044
-11.8979
-11.8043
-11.7213
-11.6475
-11.5816
-11.5228
-11.4705
-11.4242
-11.3834
-11.3475
-11.3161
-11.2888
-11.2652
-11.2449
-11.2274
-11.2125
-11.1997
-11.1888
-11.1793
-11.1711
-11.1639
-11.1576
-11.1519
-11.1469
-11.1422
-11.1379
-11.1338
-11.1298
-11.126
-11.1224
-11.119
-11.1159
-11.1132
-11.1111
-11.1096
-11.1089
-24.9136
-24.8316
-24.6611
-24.3899
-24.0032
-23.4878
-22.8394
-22.0684
-21.2031
-20.2837
-19.3515
-18.4414
-17.579
-16.7802
-16.0531
-15.4009
-14.8235
-14.3184
-13.8818
-13.5074
-13.1876
-12.9141
-12.6798
-12.4786
-12.3054
-12.1562
-12.0274
-11.9159
-11.8189
-11.7337
-11.6581
-11.5905
-11.5299
-11.4757
-11.4275
-11.3847
-11.3471
-11.3141
-11.2854
-11.2605
-11.239
-11.2208
-11.2052
-11.1921
-11.1809
-11.1713
-11.1631
-11.156
-11.1498
-11.1443
-11.1395
-11.135
-11.1309
-11.127
-11.1232
-11.1195
-11.1158
-11.1122
-11.1087
-11.1055
-11.1026
-11.1004
-11.0988
-11.098
-25.2832
-25.2058
-25.0423
-24.7761
-24.3859
-23.8511
-23.1609
-22.3252
-21.3787
-20.3733
-19.3606
-18.3817
-17.465
-16.626
-15.8711
-15.2015
-14.6152
-14.1087
-13.6771
-13.3129
-13.0063
-12.7473
-12.5275
-12.3403
-12.1804
-12.0436
-11.9265
-11.8259
-11.7387
-11.6623
-11.5943
-11.5331
-11.4778
-11.4281
-11.3839
-11.3447
-11.3103
-11.2802
-11.2541
-11.2316
-11.2124
-11.1962
-11.1826
-11.1713
-11.1617
-11.1536
-11.1467
-11.1407
-11.1355
-11.1309
-11.1268
-11.1231
-11.1195
-11.116
-11.1125
-11.109
-11.1054
-11.1018
-11.0982
-11.0948
-11.0917
-11.0893
-11.0875
-11.0867
-25.6605
-25.5902
-25.4384
-25.1837
-24.7965
-24.2462
-23.5132
-22.6047
-21.5645
-20.461
-19.3588
-18.3053
-17.3318
-16.4524
-15.6705
-14.9847
-14.3911
-13.8847
-13.4602
-13.1087
-12.8178
-12.5752
-12.3714
-12.1992
-12.0532
-11.9295
-11.8245
-11.7351
-11.6583
-11.5911
-11.5308
-11.4758
-11.4257
-11.3805
-11.3401
-11.3044
-11.2732
-11.246
-11.2226
-11.2025
-11.1855
-11.1714
-11.1598
-11.1503
-11.1424
-11.1358
-11.1302
-11.1253
-11.1211
-11.1174
-11.1141
-11.111
-11.108
-11.1049
-11.1018
-11.0984
-11.0949
-11.0913
-11.0875
-11.0839
-11.0806
-11.0779
-11.076
-11.0751
-26.0412
-25.9808
-25.8464
-25.6108
-25.235
-24.6755
-23.8994
-22.9091
-21.76
-20.5445
-19.3431
-18.2096
-17.1776
-16.2587
-15.4511
-14.7511
-14.1519
-13.647
-13.2318
-12.896
-12.6235
-12.3992
-12.2127
-12.0564
-11.9249
-11.8146
-11.7221
-11.6443
-11.5782
-11.5205
-11.468
-11.4192
-11.374
-11.333
-11.2964
-11.2642
-11.2361
-11.2118
-11.191
-11.1732
-11.1584
-11.1464
-11.1369
-11.1293
-11.1231
-11.118
-11.1136
-11.1099
-11.1067
-11.1039
-11.1013
-11.0989
-11.0965
-11.0939
-11.0911
-11.0879
-11.0845
-11.0808
-11.0769
-11.0729
-11.0693
-11.0663
-11.0643
-11.0632
-26.4208
-26.3735
-26.2626
-26.0553
-25.7018
-25.1418
-24.3238
-23.2409
-21.964
-20.6207
-19.3105
-18.0916
-17.0009
-16.0445
-15.2133
-14.5014
-13.8984
-13.3961
-12.9925
-12.6759
-12.425
-12.2208
-12.0528
-11.9131
-11.7963
-11.6997
-11.62
-11.554
-11.499
-11.4513
-11.4067
-11.3637
-11.3232
-11.2862
-11.2531
-11.2242
-11.1993
-11.1778
-11.1595
-11.1441
-11.1314
-11.1215
-11.1141
-11.1085
-11.104
-11.1003
-11.0973
-11.0947
-11.0924
-11.0905
-11.0887
-11.087
-11.0852
-11.083
-11.0805
-11.0775
-11.0741
-11.0703
-11.0662
-11.062
-11.0579
-11.0546
-11.0523
-11.0512
-26.7951
-26.764
-26.6834
-26.515
-26.1968
-25.6484
-24.7919
-23.6039
-22.1746
-20.6857
-19.2577
-17.9485
-16.8
-15.8098
-14.9576
-14.2366
-13.6319
-13.1327
-12.7429
-12.4496
-12.2237
-12.0413
-11.8927
-11.7704
-11.6683
-11.5854
-11.5188
-11.4647
-11.4212
-11.3839
-11.3473
-11.3096
-11.2733
-11.24
-11.2102
-11.1847
-11.1629
-11.1442
-11.1284
-11.1153
-11.1046
-11.0967
-11.0915
-11.0878
-11.0851
-11.0829
-11.0811
-11.0796
-11.0783
-11.0772
-11.0762
-11.0752
-11.074
-11.0723
-11.0701
-11.0673
-11.0639
-11.06
-11.0557
-11.051
-11.0465
-11.0427
-11.0402
-11.039
-27.1599
-27.1482
-27.105
-26.9868
-26.7199
-26.1993
-25.3109
-24.0029
-22.3889
-20.7348
-19.1815
-17.7768
-16.5737
-15.5554
-14.6844
-13.958
-13.354
-12.8569
-12.4831
-12.2182
-12.0214
-11.862
-11.7338
-11.6291
-11.5413
-11.4723
-11.4189
-11.3767
-11.3452
-11.319
-11.2905
-11.2573
-11.2247
-11.1948
-11.168
-11.1457
-11.1271
-11.111
-11.0977
-11.0868
-11.0779
-11.0721
-11.0691
-11.0676
-11.0665
-11.0658
-11.0653
-11.0647
-11.0644
-11.0642
-11.0639
-11.0636
-11.063
-11.0618
-11.0598
-11.0572
-11.0539
-11.0499
-11.0453
-11.0402
-11.035
-11.0307
-11.028
-11.0266
-27.511
-27.5218
-27.5229
-27.4675
-27.2702
-26.7985
-25.8899
-24.4446
-22.6018
-20.7618
-19.0792
-17.5729
-16.3205
-15.2829
-14.3944
-13.6672
-13.0669
-12.5686
-12.2129
-11.9833
-11.8203
-11.6841
-11.5767
-11.4903
-11.4159
-11.3608
-11.3209
-11.2901
-11.2711
-11.2571
-11.2366
-11.2068
-11.1772
-11.1507
-11.1264
-11.1073
-11.092
-11.0784
-11.0676
-11.0587
-11.0514
-11.0476
-11.0471
-11.0478
-11.0483
-11.0491
-11.0497
-11.0502
-11.0507
-11.0513
-11.0518
-11.0522
-11.0524
-11.0516
-11.0498
-11.0474
-11.0442
-11.0401
-11.0352
-11.0294
-11.0235
-11.0186
-11.0157
-11.0142
-27.845
-27.8809
-27.9329
-27.9528
-27.846
-27.4502
-26.54
-24.9385
-22.8051
-20.7593
-18.9495
-17.3319
-16.0396
-14.995
-14.0878
-13.366
-12.7736
-12.2669
-11.9315
-11.7462
-11.6229
-11.5084
-11.4225
-11.3552
-11.2923
-11.251
-11.2252
-11.2049
-11.199
-11.1987
-11.1865
-11.1582
-11.131
-11.1077
-11.0854
-11.0696
-11.0577
-11.0463
-11.038
-11.0314
-11.0252
-11.0233
-11.0255
-11.0285
-11.0306
-11.0327
-11.0346
-11.0359
-11.0373
-11.0387
-11.0399
-11.0411
-11.042
-11.0417
-11.0401
-11.0378
-11.0347
-11.0304
-11.0253
-11.0189
-11.0119
-11.0064
-11.0033
-11.0018
-28.1585
-28.2217
-28.3303
-28.438
-28.4445
-28.1582
-27.2754
-25.4982
-22.9853
-20.7182
-18.7935
-17.0479
-15.7299
-14.6968
-13.7639
-13.0563
-12.4787
-11.9499
-11.6375
-11.509
-11.4323
-11.3354
-11.2717
-11.2249
-11.1701
-11.1432
-11.1325
-11.1208
-11.1288
-11.1445
-11.1409
-11.1112
-11.086
-11.0661
-11.0448
-11.0326
-11.0246
-11.0149
-11.0092
-11.0048
-10.999
-10.9991
-11.0043
-11.0099
-11.0133
-11.0168
-11.0199
-11.0219
-11.0242
-11.0264
-11.0281
-11.0301
-11.0319
-11.0321
-11.0305
-11.0284
-11.0255
-11.0211
-11.0157
-11.0086
-11.0003
-10.994
-10.9907
-10.9894
-28.4488
-28.5408
-28.7106
-28.9173
-29.061
-28.9253
-28.1133
-26.1439
-23.1211
-20.6273
-18.6171
-16.7118
-15.3906
-14.3961
-13.42
-12.7402
-12.1889
-11.6139
-11.3284
-11.274
-11.2526
-11.1647
-11.1246
-11.1012
-11.0489
-11.0375
-11.0436
-11.0371
-11.0603
-11.0953
-11.101
-11.0653
-11.0417
-11.0263
-11.0044
-10.9962
-10.993
-10.9839
-10.9812
-10.9792
-10.9728
-10.9749
-10.9838
-10.9922
-10.9965
-11.0014
-11.0058
-11.0081
-11.0113
-11.0145
-11.0166
-11.0194
-11.0222
-11.023
-11.0212
-11.0193
-11.0166
-11.0119
-11.0065
-10.9987
-10.9885
-10.9814
-10.9782
-10.977
-28.7137
-28.8353
-29.0693
-29.3844
-29.6894
-29.7522
-29.0738
-26.9059
-23.1788
-20.4739
-18.4334
-16.3101
-15.0209
-14.1056
-13.0503
-12.42
-11.9145
-11.2527
-11.0008
-11.0445
-11.0897
-10.9947
-10.9814
-10.9865
-10.9271
-10.9336
-10.9601
-10.9527
-10.993
-11.052
-11.0682
-11.0195
-10.9981
-10.9888
-10.9636
-10.9605
-10.9632
-10.9532
-10.9541
-10.9552
-10.9463
-10.9505
-10.9639
-10.9755
-10.9801
-10.9864
-10.9922
-10.9946
-10.9987
-11.0029
-11.0052
-11.0089
-11.0129
-11.0143
-11.012
-11.0104
-11.0081
-11.0031
-10.9977
-10.9892
-10.9765
-10.9686
-10.9656
-10.9647
-28.9518
-29.1027
-29.4022
-29.8326
-30.3211
-30.6366
-30.1798
-27.8301
-23.1064
-20.2436
-18.2674
-15.8212
-14.62
-13.8447
-12.6433
-12.0979
-11.6713
-10.8557
-10.6501
-10.8244
-10.9511
-10.8218
-10.842
-10.8848
-10.8021
-10.8316
-10.8843
-10.8658
-10.926
-11.0157
-11.0448
-10.9721
-10.9546
-10.9546
-10.9216
-10.9254
-10.9361
-10.9222
-10.9278
-10.9332
-10.9191
-10.9259
-10.945
-10.9602
-10.964
-10.9719
-10.9795
-10.9812
-10.9865
-10.9919
-10.9938
-10.9987
-11.0041
-11.0062
-11.0028
-11.0018
-11.0001
-10.9944
-10.9895
-10.9805
-10.9643
-10.9556
-10.953
-10.9527
-29.162
-29.3413
-29.7056
-30.2547
-30.9453
-31.5716
-31.4554
-28.986
-22.8244
-19.9214
-18.1617
-15.2109
-14.1875
-13.6436
-12.1788
-11.7759
-11.4829
-10.4058
-10.2708
-10.6192
-10.8477
-10.6392
-10.7058
-10.8016
-10.6697
-10.7312
-10.8198
-10.7735
-10.8585
-10.9879
-11.0338
-10.9202
-10.9109
-10.9256
-10.8771
-10.8908
-10.9128
-10.8901
-10.9026
-10.9141
-10.8906
-10.9006
-10.927
-10.9468
-10.9478
-10.9579
-10.9678
-10.9678
-10.9745
-10.9815
-10.9825
-10.9886
-10.996
-10.9989
-10.9937
-10.9934
-10.9927
-10.9858
-10.9819
-10.9728
-10.9514
-10.9422
-10.9406
-10.941
-29.3441
-29.5501
-29.9762
-30.6436
-31.5495
-32.5445
-32.9232
-30.4783
-22.214
-19.4929
-18.1845
-14.4251
-13.7232
-13.5472
-11.6233
-11.4563
-11.3844
-9.87683
-9.85716
-10.4354
-10.7944
-10.4357
-10.5725
-10.7457
-10.5226
-10.6322
-10.772
-10.6714
-10.789
-10.9699
-11.04
-10.8596
-10.8664
-10.9043
-10.8278
-10.8568
-10.8951
-10.8556
-10.8784
-10.8995
-10.8596
-10.8747
-10.9105
-10.9357
-10.9314
-10.9444
-10.9575
-10.9542
-10.9629
-10.9721
-10.971
-10.9786
-10.9885
-10.9927
-10.9842
-10.9853
-10.9862
-10.9772
-10.9751
-10.9665
-10.9377
-10.9285
-10.9283
-10.9297
-29.4984
-29.7284
-30.2118
-30.9926
-32.1189
-33.535
-34.5991
-32.463
-21.0999
-18.947
-18.4399
-13.3808
-13.2284
-13.6218
-10.9238
-11.1413
-11.4273
-9.22829
-9.40384
-10.2804
-10.8121
-10.1936
-10.4413
-10.73
-10.3501
-10.5345
-10.7492
-10.5527
-10.7165
-10.9632
-11.0698
-10.7837
-10.8207
-10.8947
-10.7705
-10.8232
-10.8854
-10.8166
-10.8554
-10.8912
-10.8246
-10.8477
-10.8955
-10.9278
-10.9138
-10.9314
-10.9491
-10.9398
-10.9517
-10.964
-10.959
-10.9688
-10.9818
-10.9878
-10.9742
-10.9774
-10.9808
-10.9682
-10.969
-10.9624
-10.9226
-10.9144
-10.9164
-10.9188
-29.6256
-29.8767
-30.4108
-31.296
-32.6383
-34.514
-36.4843
-35.1691
-19.2282
-18.2796
-19.0819
-11.9524
-12.7068
-13.9634
-9.9997
-10.8339
-11.6856
-8.4
-8.90835
-10.1623
-10.9297
-9.88625
-10.3121
-10.7735
-10.1356
-10.4382
-10.7632
-10.4076
-10.6396
-10.969
-11.1325
-10.6827
-10.7736
-10.9028
-10.7
-10.7901
-10.8875
-10.7697
-10.8334
-10.8921
-10.7831
-10.8196
-10.8825
-10.9241
-10.8941
-10.9188
-10.9434
-10.9241
-10.9408
-10.9575
-10.9461
-10.9589
-10.9758
-10.9847
-10.963
-10.9697
-10.9769
-10.9582
-10.9637
-10.9613
-10.9052
-10.8999
-10.9048
-10.9085
-29.727
-29.9956
-30.5728
-31.5494
-33.0923
-35.4436
-38.5533
-38.9287
-16.2378
-17.4998
-20.3302
-9.95493
-12.1671
-14.7078
-8.73176
-10.5383
-12.2637
-7.30386
-8.37404
-10.0884
-11.1871
-9.47459
-10.1856
-10.9028
-9.85496
-10.3442
-10.8309
-10.2215
-10.5581
-10.9878
-11.2415
-10.5426
-10.7254
-10.9369
-10.609
-10.7578
-10.9066
-10.7101
-10.8127
-10.9062
-10.7316
-10.7905
-10.8715
-10.9262
-10.8708
-10.9066
-10.9412
-10.9061
-10.9302
-10.9535
-10.9317
-10.949
-10.9706
-10.9841
-10.9499
-10.9622
-10.9751
-10.9466
-10.9591
-10.9644
-10.8844
-10.8849
-10.8938
-10.8986
-29.804
-30.0866
-30.6982
-31.75
-33.4671
-36.2776
-40.7358
-44.214
-11.6234
-16.6373
-22.4905
-7.12264
-11.6263
-16.0433
-6.94918
-10.2612
-13.3061
-5.8137
-7.81492
-10.0629
-11.6391
-8.9033
-10.0638
-11.1557
-9.4739
-10.2542
-10.9757
-9.97416
-10.4731
-11.0186
-11.4154
-10.3439
-10.6768
-11.0089
-10.4869
-10.7266
-10.9499
-10.631
-10.7934
-10.9391
-10.6651
-10.7607
-10.8628
-10.9361
-10.8416
-10.8948
-10.944
-10.8843
-10.9199
-10.9527
-10.9148
-10.9391
-10.966
-10.9867
-10.9337
-10.9547
-10.9762
-10.9322
-10.9549
-10.9733
-10.8583
-10.8698
-10.8832
-10.8893
-29.8586
-30.1513
-30.7883
-31.8969
-33.7519
-36.9653
-42.8929
-51.6854
-4.69071
-15.7541
-25.978
-3.08264
-11.1139
-18.2256
-4.4133
-10.0139
-15.0088
-3.75238
-7.26248
-10.0837
-12.3603
-8.09582
-9.95169
-11.5832
-8.94437
-10.1719
-11.2296
-9.63688
-10.3883
-11.058
-11.6799
-10.0596
-10.6303
-11.1347
-10.3189
-10.6976
-11.0274
-10.523
-10.7758
-10.9985
-10.5764
-10.7316
-10.8562
-10.9566
-10.8035
-10.8836
-10.9538
-10.8569
-10.9101
-10.9565
-10.8943
-10.9291
-10.9618
-10.994
-10.913
-10.9473
-10.9814
-10.9139
-10.9511
-10.9906
-10.8248
-10.8549
-10.8735
-10.8807
-29.8926
-30.1919
-30.8454
-31.9914
-33.9406
-37.4565
-44.7857
-62.2497
5.49789
-14.9583
-31.343
2.67623
-10.6794
-21.5951
-0.798544
-9.8142
-17.6335
-0.876099
-6.77502
-10.1378
-13.4511
-6.94855
-9.85806
-12.2539
-8.20107
-10.1034
-11.6348
-9.17069
-10.3121
-11.0989
-12.0704
-9.65344
-10.5897
-11.336
-10.0851
-10.6729
-11.1528
-10.3733
-10.7608
-11.0949
-10.4564
-10.7056
-10.8514
-10.9917
-10.7529
-10.8735
-10.9734
-10.8214
-10.9011
-10.9668
-10.8688
-10.9198
-10.9578
-11.008
-10.8862
-10.9403
-10.9927
-10.8899
-10.9474
-11.0198
-10.7808
-10.8413
-10.8649
-10.873
-29.9083
-30.2107
-30.8722
-32.0363
-34.0325
-37.7118
-46.0341
-77.1297
20.1871
-14.4224
-39.3
10.8395
-10.3994
-26.5959
4.32962
-9.68992
-21.5218
3.1447
-6.44923
-10.1931
-15.0448
-5.3237
-9.79706
-13.2568
-7.15634
-10.0585
-12.2464
-8.52268
-10.2587
-11.1279
-12.6338
-9.07696
-10.5614
-11.6405
-9.75832
-10.6553
-11.3432
-10.1647
-10.7495
-11.2415
-10.2917
-10.6864
-10.8472
-11.0465
-10.6843
-10.8649
-11.0062
-10.7745
-10.8933
-10.9858
-10.836
-10.9115
-10.9533
-11.0309
-10.8507
-10.9336
-11.0121
-10.8579
-10.9429
-11.065
-10.7219
-10.8303
-10.8575
-10.8661
)
;

boundaryField
{
    left
    {
        type            calculated;
        value           nonuniform List<scalar> 
32
(
-22.5666
-22.625
-22.736
-22.8937
-23.0928
-23.3287
-23.597
-23.8937
-24.2147
-24.556
-24.9136
-25.2832
-25.6605
-26.0412
-26.4208
-26.7951
-27.1599
-27.511
-27.845
-28.1585
-28.4488
-28.7137
-28.9518
-29.162
-29.3441
-29.4984
-29.6256
-29.727
-29.804
-29.8586
-29.8926
-29.9083
)
;
    }
    right
    {
        type            calculated;
        value           nonuniform List<scalar> 
32
(
-11.1713
-11.1694
-11.1658
-11.1607
-11.1543
-11.1469
-11.1384
-11.1292
-11.1193
-11.1089
-11.098
-11.0867
-11.0751
-11.0632
-11.0512
-11.039
-11.0266
-11.0142
-11.0018
-10.9894
-10.977
-10.9647
-10.9527
-10.941
-10.9297
-10.9188
-10.9085
-10.8986
-10.8893
-10.8807
-10.873
-10.8661
)
;
    }
    interface
    {
        type            calculated;
        value           nonuniform List<scalar> 
64
(
-29.9117
-30.215
-30.8783
-32.0469
-34.0547
-37.7766
-46.4394
-85.8237
28.8338
-14.2456
-44.0269
15.62
-10.3096
-29.5666
7.33393
-9.65081
-23.83
5.48844
-6.34164
-10.2157
-15.9862
-4.37226
-9.77684
-13.8539
-6.54609
-10.0434
-12.6114
-8.14561
-10.24
-11.1373
-12.9653
-8.73921
-10.5512
-11.8223
-9.5678
-10.6486
-11.4571
-10.0432
-10.7448
-11.3292
-10.1963
-10.679
-10.8449
-11.0795
-10.6446
-10.861
-11.0264
-10.7476
-10.8896
-10.9978
-10.8174
-10.9077
-10.9508
-11.0449
-10.8303
-10.9302
-11.0241
-10.8396
-10.9403
-11.0922
-10.6881
-10.8256
-10.854
-10.8628
)
;
    }
    bottom
    {
        type            calculated;
        value           nonuniform List<scalar> 
64
(
-22.5514
-22.4789
-22.335
-22.1216
-21.8421
-21.5009
-21.1039
-20.6584
-20.1727
-19.6561
-19.1183
-18.5691
-18.0176
-17.4725
-16.9411
-16.4295
-15.9425
-15.4837
-15.0553
-14.6586
-14.2938
-13.9605
-13.6576
-13.3835
-13.1366
-12.9148
-12.7162
-12.5387
-12.3803
-12.2392
-12.1136
-12.0019
-11.9027
-11.8145
-11.7363
-11.667
-11.6056
-11.5513
-11.5033
-11.461
-11.4237
-11.3908
-11.362
-11.3366
-11.3144
-11.2949
-11.2778
-11.2628
-11.2497
-11.2381
-11.228
-11.219
-11.2111
-11.2042
-11.1981
-11.1927
-11.188
-11.1839
-11.1805
-11.1776
-11.1753
-11.1735
-11.1724
-11.1718
)
;
    }
    defaultFaces
    {
        type            empty;
    }
}


// ************************************************************************* //
