/*--------------------------------*- C++ -*----------------------------------*\
| =========                 |                                                 |
| \\      /  F ield         | OpenFOAM: The Open Source CFD Toolbox           |
|  \\    /   O peration     | Version:  5.x                                   |
|   \\  /    A nd           | Web:      www.OpenFOAM.org                      |
|    \\/     M anipulation  |                                                 |
\*---------------------------------------------------------------------------*/
FoamFile
{
    version     2.0;
    format      ascii;
    class       volScalarField;
    location    "1.8";
    object      T;
}
// * * * * * * * * * * * * * * * * * * * * * * * * * * * * * * * * * * * * * //

dimensions      [0 0 0 1 0 0 0];

internalField   nonuniform List<scalar> 
2048
(
9.83798
9.83851
9.83954
9.84107
9.84308
9.84553
9.84838
9.85158
9.85507
9.85879
9.86265
9.86659
9.87056
9.87447
9.87829
9.88197
9.88546
9.88876
9.89184
9.89469
9.89731
9.8997
9.90188
9.90385
9.90562
9.90722
9.90864
9.90992
9.91106
9.91207
9.91297
9.91378
9.91449
9.91512
9.91568
9.91618
9.91662
9.91701
9.91736
9.91766
9.91793
9.91817
9.91837
9.91855
9.91871
9.91885
9.91898
9.91908
9.91918
9.91926
9.91934
9.9194
9.91946
9.91951
9.91955
9.91959
9.91962
9.91965
9.91968
9.9197
9.91971
9.91973
9.91973
9.91974
9.52061
9.52216
9.52523
9.52978
9.53574
9.54302
9.5515
9.56101
9.57138
9.58241
9.59389
9.60561
9.61737
9.62899
9.64032
9.65121
9.66158
9.67134
9.68044
9.68887
9.69661
9.70369
9.71011
9.71592
9.72115
9.72585
9.73006
9.73382
9.73717
9.74016
9.74282
9.74518
9.74728
9.74914
9.7508
9.75227
9.75356
9.75471
9.75573
9.75662
9.75741
9.75811
9.75872
9.75925
9.75972
9.76014
9.7605
9.76081
9.76109
9.76134
9.76155
9.76174
9.76191
9.76205
9.76218
9.7623
9.7624
9.76248
9.76256
9.76262
9.76267
9.7627
9.76273
9.76274
9.21596
9.2185
9.22355
9.23103
9.24085
9.25285
9.26682
9.2825
9.29961
9.31779
9.33672
9.35602
9.37538
9.39449
9.41309
9.43097
9.44796
9.46393
9.47882
9.49259
9.50522
9.51675
9.52722
9.53667
9.54518
9.55282
9.55965
9.56575
9.57119
9.57604
9.58035
9.58418
9.58759
9.59061
9.59329
9.59567
9.59778
9.59964
9.60129
9.60274
9.60402
9.60514
9.60613
9.607
9.60776
9.60843
9.60901
9.60952
9.60997
9.61037
9.61072
9.61102
9.61129
9.61153
9.61174
9.61192
9.61209
9.61223
9.61235
9.61245
9.61253
9.61259
9.61263
9.61265
8.92289
8.9264
8.93339
8.94376
8.95737
8.97402
8.99342
9.01521
9.03899
9.06426
9.09054
9.11733
9.14417
9.17062
9.19633
9.221
9.2444
9.26638
9.28682
9.3057
9.323
9.33876
9.35305
9.36595
9.37754
9.38794
9.39723
9.40553
9.41292
9.4195
9.42536
9.43056
9.43518
9.43929
9.44293
9.44616
9.44901
9.45154
9.45377
9.45574
9.45748
9.459
9.46034
9.46152
9.46255
9.46345
9.46424
9.46494
9.46554
9.46608
9.46655
9.46696
9.46733
9.46765
9.46793
9.46819
9.46841
9.4686
9.46876
9.4689
9.46901
9.46909
9.46915
9.46917
8.64042
8.64489
8.65379
8.66701
8.68438
8.70566
8.73048
8.75839
8.78883
8.8212
8.85483
8.88908
8.92333
8.95704
8.98974
9.02105
9.05069
9.07846
9.10425
9.12801
9.14975
9.16953
9.18743
9.20355
9.21804
9.23101
9.2426
9.25293
9.26213
9.27032
9.2776
9.28407
9.28982
9.29492
9.29945
9.30346
9.30701
9.31016
9.31293
9.31538
9.31753
9.31942
9.32109
9.32254
9.32382
9.32494
9.32592
9.32678
9.32753
9.32819
9.32877
9.32929
9.32974
9.33014
9.33049
9.33081
9.33108
9.33132
9.33153
9.3317
9.33184
9.33194
9.33201
9.33205
8.36774
8.37316
8.38394
8.39998
8.4211
8.447
8.47727
8.51134
8.54853
8.58806
8.6291
8.67084
8.7125
8.75342
8.79301
8.83084
8.86656
8.89995
8.93088
8.95931
8.98527
9.00883
9.03011
9.04926
9.06644
9.08179
9.0955
9.10771
9.11858
9.12824
9.13683
9.14446
9.15124
9.15726
9.1626
9.16733
9.17152
9.17522
9.17849
9.18138
9.18391
9.18614
9.1881
9.18981
9.19131
9.19262
9.19377
9.19478
9.19567
9.19644
9.19712
9.19773
9.19826
9.19873
9.19915
9.19952
9.19984
9.20013
9.20037
9.20058
9.20075
9.20087
9.20095
9.201
8.10414
8.11048
8.12312
8.14196
8.16682
8.19738
8.23315
8.27348
8.31753
8.36434
8.4129
8.46221
8.51132
8.55943
8.60587
8.65011
8.69176
8.73059
8.76646
8.79935
8.82929
8.85641
8.88086
8.90282
8.92248
8.94003
8.95568
8.96961
8.982
8.993
9.00278
9.01147
9.01919
9.02604
9.03212
9.0375
9.04227
9.04649
9.05021
9.05349
9.05637
9.0589
9.06112
9.06306
9.06476
9.06625
9.06755
9.06869
9.06969
9.07057
9.07134
9.07203
9.07263
9.07317
9.07364
9.07406
9.07444
9.07476
9.07505
9.07528
9.07548
9.07562
9.07572
9.07577
7.84903
7.85627
7.87073
7.89234
7.92093
7.95616
7.99753
8.04424
8.09532
8.14959
8.20583
8.26282
8.31946
8.37478
8.42801
8.47856
8.52602
8.57011
8.61073
8.64784
8.68155
8.71201
8.7394
8.76395
8.78589
8.80545
8.82287
8.83836
8.85211
8.86434
8.87519
8.88483
8.8934
8.901
8.90774
8.91372
8.91901
8.92369
8.92781
8.93145
8.93464
8.93744
8.9399
8.94204
8.94392
8.94556
8.947
8.94826
8.94936
8.95032
8.95118
8.95193
8.9526
8.95319
8.95372
8.95419
8.95461
8.95497
8.95529
8.95556
8.95578
8.95594
8.95606
8.95611
7.60188
7.61
7.62624
7.65057
7.68286
7.72282
7.76986
7.82313
7.88144
7.9434
8.00752
8.07236
8.1366
8.19916
8.25916
8.31594
8.36906
8.41824
8.46339
8.50453
8.54177
8.57532
8.60543
8.63236
8.65638
8.67777
8.69678
8.71367
8.72866
8.74197
8.75378
8.76428
8.7736
8.78187
8.78922
8.79573
8.80148
8.80657
8.81106
8.81501
8.81848
8.82152
8.82418
8.82651
8.82854
8.83032
8.83187
8.83323
8.83442
8.83546
8.83638
8.8372
8.83792
8.83857
8.83914
8.83966
8.84011
8.84052
8.84087
8.84117
8.84141
8.8416
8.84173
8.84179
7.36228
7.37124
7.38919
7.41617
7.45214
7.49683
7.54967
7.60967
7.67546
7.74537
7.81762
7.89049
7.96247
8.0323
8.09903
8.16195
8.22059
8.2747
8.32418
8.3691
8.40965
8.44607
8.47867
8.50776
8.53367
8.55669
8.57713
8.59527
8.61135
8.62562
8.63828
8.64953
8.65953
8.6684
8.67628
8.68326
8.68944
8.69489
8.6997
8.70393
8.70764
8.71089
8.71374
8.71622
8.71838
8.72028
8.72193
8.72337
8.72464
8.72575
8.72673
8.7276
8.72837
8.72906
8.72967
8.73023
8.73072
8.73116
8.73155
8.73188
8.73215
8.73235
8.73249
8.73256
7.12986
7.13961
7.15919
7.18873
7.2283
7.27773
7.33647
7.40344
7.47701
7.55518
7.63583
7.71694
7.79677
7.87393
7.94736
8.01632
8.08035
8.13919
8.19279
8.24128
8.28488
8.32394
8.3588
8.38985
8.41744
8.44193
8.46363
8.48286
8.4999
8.51501
8.52842
8.54034
8.55093
8.56034
8.56869
8.57608
8.58263
8.58841
8.5935
8.59797
8.6019
8.60533
8.60833
8.61094
8.61322
8.61521
8.61694
8.61846
8.61979
8.62095
8.62198
8.6229
8.62371
8.62444
8.62509
8.62568
8.62621
8.62669
8.6271
8.62746
8.62776
8.62798
8.62814
8.62822
6.90434
6.9148
6.93589
6.96786
7.01093
7.06509
7.12984
7.20401
7.2857
7.37249
7.46186
7.55145
7.63927
7.72378
7.80387
7.87878
7.94803
8.01142
8.06893
8.12074
8.16717
8.20862
8.24553
8.27832
8.30742
8.33319
8.356
8.37618
8.39405
8.40989
8.42394
8.43644
8.44755
8.45742
8.46619
8.47395
8.48082
8.48688
8.49222
8.49691
8.50102
8.5046
8.50773
8.51046
8.51283
8.51489
8.5167
8.51827
8.51965
8.52086
8.52193
8.52288
8.52373
8.52449
8.52518
8.5258
8.52637
8.52687
8.52732
8.52771
8.52803
8.52828
8.52845
8.52853
6.68545
6.69656
6.71901
6.75324
6.79967
6.8585
6.92936
7.01101
7.1012
7.19703
7.29546
7.39377
7.48971
7.58161
7.6683
7.74903
7.82336
7.89111
7.9523
8.00719
8.05619
8.0998
8.13853
8.17288
8.20328
8.23018
8.25394
8.27494
8.29352
8.30997
8.32458
8.33757
8.34914
8.35942
8.36855
8.37663
8.38379
8.39009
8.39564
8.40051
8.40478
8.40849
8.41173
8.41454
8.41699
8.41912
8.42098
8.4226
8.42402
8.42527
8.42637
8.42735
8.42822
8.42901
8.42973
8.43038
8.43097
8.43151
8.43199
8.43241
8.43276
8.43303
8.43322
8.43331
6.47302
6.48467
6.50831
6.54457
6.59415
6.65756
6.73462
6.82405
6.9232
7.02853
7.13641
7.24369
7.34787
7.44716
7.54039
7.62682
7.70605
7.77796
7.84261
7.90033
7.95165
7.99718
8.03752
8.07321
8.10476
8.13261
8.15719
8.17888
8.19804
8.21501
8.23008
8.2435
8.25546
8.26609
8.27554
8.2839
8.2913
8.29782
8.30355
8.30858
8.31297
8.31679
8.32012
8.323
8.3255
8.32768
8.32958
8.33124
8.33269
8.33396
8.33509
8.33609
8.33699
8.3378
8.33854
8.33922
8.33984
8.34041
8.34092
8.34137
8.34175
8.34204
8.34224
8.34234
6.26688
6.27896
6.30358
6.34159
6.39406
6.46189
6.54522
6.64277
6.75142
6.86676
6.9845
7.10101
7.21353
7.32019
7.41987
7.51185
7.59581
7.67167
7.73955
7.79984
7.85322
7.90044
7.94217
7.97903
8.01155
8.04022
8.06548
8.08773
8.10737
8.12475
8.14021
8.15399
8.16628
8.17722
8.18694
8.19554
8.20314
8.20984
8.21573
8.22089
8.22539
8.2293
8.23269
8.23562
8.23817
8.24038
8.24231
8.24399
8.24546
8.24676
8.2479
8.24892
8.24983
8.25066
8.25142
8.25213
8.25278
8.25337
8.25392
8.2544
8.25481
8.25512
8.25534
8.25545
6.06691
6.07929
6.10464
6.14409
6.19912
6.27113
6.36077
6.46682
6.58558
6.71154
6.83954
6.96555
7.08648
7.20047
7.30647
7.40384
7.49235
7.57197
7.64283
7.70542
7.7606
7.80928
7.8522
7.89004
7.92339
7.95273
7.97854
8.00124
8.02125
8.03896
8.05472
8.0688
8.08138
8.09258
8.10253
8.11135
8.11912
8.12597
8.13199
8.13725
8.14184
8.14582
8.14925
8.15222
8.1548
8.15703
8.15898
8.16068
8.16216
8.16347
8.16462
8.16565
8.16657
8.16742
8.1682
8.16892
8.1696
8.17022
8.1708
8.17131
8.17175
8.1721
8.17233
8.17245
5.87303
5.88557
5.91138
5.95188
6.00903
6.08493
6.18084
6.29584
6.42547
6.56268
6.70138
6.83713
6.96652
7.08774
7.19994
7.30252
7.39537
7.47857
7.55217
7.61678
7.67349
7.72339
7.76731
7.80597
7.84
7.86989
7.89613
7.91918
7.93946
7.95739
7.97338
7.98772
8.00054
8.01197
8.02213
8.03111
8.03904
8.04601
8.05213
8.05748
8.06214
8.06616
8.06963
8.07262
8.07521
8.07745
8.07941
8.08111
8.0826
8.08391
8.08507
8.0861
8.08703
8.08789
8.08868
8.08943
8.09013
8.09078
8.09139
8.09194
8.09241
8.09279
8.09304
8.09317
5.68516
5.69771
5.72367
5.76479
5.82358
5.90292
6.00504
6.12946
6.27088
6.42006
6.56988
6.71561
6.85345
6.98175
7.1
7.20758
7.30457
7.39119
7.4673
7.53362
7.59157
7.64249
7.68723
7.72654
7.76112
7.79144
7.818
7.8413
7.86175
7.87983
7.89599
7.91054
7.92357
7.9352
7.94553
7.95466
7.96269
7.96977
7.97597
7.98139
7.9861
7.99016
7.99364
7.99664
7.99922
8.00147
8.00342
8.00513
8.00662
8.00792
8.00908
8.01011
8.01105
8.01191
8.01272
8.01348
8.0142
8.01488
8.01552
8.01611
8.01662
8.01703
8.0173
8.01744
5.50325
5.51565
5.54145
5.5827
5.64252
5.72477
5.8329
5.9673
6.12166
6.28358
6.44488
6.60086
6.74708
6.88225
7.00639
7.11874
7.21966
7.30957
7.38795
7.45565
7.51456
7.5663
7.61166
7.65149
7.68652
7.71715
7.74392
7.76739
7.78793
7.80605
7.82232
7.83706
7.85028
7.86207
7.87255
7.88179
7.88992
7.89708
7.90334
7.90881
7.91357
7.91765
7.92112
7.9241
7.92668
7.92892
7.93086
7.93256
7.93404
7.93535
7.9365
7.93752
7.93845
7.93932
7.94014
7.94092
7.94166
7.94237
7.94304
7.94367
7.94422
7.94466
7.94495
7.9451
5.32726
5.33934
5.36465
5.40552
5.4657
5.55014
5.66396
5.80895
5.97774
6.15319
6.32626
6.49277
6.64722
6.78894
6.91885
7.03571
7.14032
7.23345
7.31388
7.38259
7.44213
7.49453
7.54037
7.58055
7.61594
7.64679
7.67368
7.69725
7.71778
7.73586
7.75218
7.76709
7.78048
7.7924
7.80302
7.81235
7.82054
7.82776
7.83407
7.83958
7.84437
7.84845
7.85191
7.85486
7.85742
7.85964
7.86157
7.86326
7.86473
7.86602
7.86716
7.86818
7.8691
7.86997
7.8708
7.87159
7.87235
7.87308
7.87379
7.87446
7.87506
7.87554
7.87585
7.87601
5.15714
5.16876
5.19324
5.23318
5.29294
5.37872
5.49771
5.65393
5.83913
6.02888
6.21383
6.39125
6.55367
6.70154
6.83714
6.9582
7.06622
7.16262
7.24485
7.31414
7.37399
7.42693
7.47308
7.51348
7.54919
7.58015
7.60706
7.63067
7.65111
7.66905
7.68536
7.70046
7.71399
7.72603
7.73677
7.74616
7.75439
7.76167
7.768
7.77353
7.77835
7.78243
7.78584
7.78875
7.79129
7.79349
7.79539
7.79707
7.79852
7.7998
7.80093
7.80193
7.80284
7.8037
7.80454
7.80534
7.80612
7.80689
7.80763
7.80834
7.80899
7.80951
7.80984
7.81001
4.99287
5.00388
5.0272
5.06565
5.12416
5.21022
5.3336
5.50171
5.70596
5.91069
6.10738
6.29627
6.46625
6.61967
6.76105
6.88591
6.997
7.09688
7.18067
7.25003
7.30983
7.36326
7.40957
7.45004
7.48604
7.51703
7.54385
7.56749
7.58775
7.60542
7.62168
7.63701
7.65067
7.66278
7.67365
7.68308
7.69131
7.69864
7.70498
7.71051
7.71538
7.71944
7.72278
7.72564
7.72815
7.73031
7.73219
7.73385
7.73529
7.73654
7.73766
7.73864
7.73953
7.74039
7.74124
7.74205
7.74284
7.74363
7.74441
7.74517
7.74589
7.74644
7.7468
7.74697
4.8344
4.84466
4.86651
4.90293
4.95928
5.04438
5.17101
5.35158
5.57857
5.79871
6.00659
6.20785
6.38477
6.54294
6.69039
6.81854
6.93226
7.03608
7.12115
7.18996
7.24931
7.30331
7.34962
7.38997
7.42634
7.45723
7.48385
7.50754
7.52753
7.5448
7.56094
7.57658
7.59036
7.6025
7.61352
7.62295
7.63115
7.63854
7.64486
7.65037
7.6553
7.65933
7.66259
7.66537
7.66786
7.66998
7.67183
7.67347
7.67488
7.67611
7.67721
7.67817
7.67904
7.67989
7.68075
7.68157
7.68238
7.6832
7.684
7.68481
7.6856
7.68621
7.68658
7.68675
4.68168
4.69107
4.71117
4.74502
4.79829
4.881
5.00932
5.20267
5.45756
5.69305
5.911
6.12613
6.30904
6.47082
6.62508
6.75582
6.87151
6.98014
7.06614
7.13364
7.1921
7.24691
7.29301
7.33302
7.36991
7.40058
7.42684
7.45068
7.47029
7.487
7.50295
7.51906
7.53291
7.54502
7.55625
7.56563
7.57375
7.58123
7.58751
7.59298
7.598
7.60199
7.60513
7.60782
7.61029
7.61237
7.61416
7.61581
7.61718
7.61838
7.61948
7.62041
7.62124
7.62207
7.62296
7.62379
7.6246
7.62545
7.62627
7.62713
7.62802
7.62868
7.62906
7.62923
4.53465
4.54307
4.56118
4.59197
4.64125
4.71995
4.84783
5.05377
5.3439
5.59388
5.81989
6.05141
6.23888
6.40267
6.56514
6.69746
6.8142
6.92906
7.01552
7.08078
7.1378
7.19393
7.23955
7.27892
7.31664
7.34691
7.37262
7.39678
7.4159
7.43185
7.44751
7.46432
7.47819
7.49018
7.50171
7.51099
7.51897
7.52659
7.53279
7.53818
7.54335
7.54728
7.55027
7.55285
7.55532
7.55734
7.55908
7.56073
7.56207
7.56322
7.56432
7.56522
7.56601
7.56682
7.56774
7.56857
7.56938
7.57027
7.57111
7.57201
7.57303
7.57373
7.57411
7.57428
4.39324
4.40061
4.41654
4.44384
4.48823
4.5612
4.68586
4.90326
5.23911
5.50138
5.73226
5.98424
6.17409
6.33765
6.51076
6.64317
6.7596
6.88298
6.9692
7.03105
7.08599
7.1443
7.18907
7.22739
7.26646
7.29606
7.32095
7.34577
7.36423
7.37917
7.39443
7.4123
7.42609
7.43783
7.4498
7.45891
7.46665
7.47451
7.48057
7.48584
7.49125
7.49509
7.49788
7.50032
7.50284
7.50478
7.50645
7.50813
7.50942
7.51052
7.51163
7.51249
7.51322
7.51402
7.51499
7.5158
7.5166
7.51754
7.51839
7.51933
7.5205
7.52125
7.52163
7.52179
4.25738
4.26364
4.27722
4.30067
4.33939
4.40483
4.52278
4.74886
5.14541
5.41572
5.6466
5.92551
6.11448
6.27465
6.46238
6.59269
6.7068
6.84224
6.92708
6.98413
7.03617
7.09808
7.14139
7.17806
7.21933
7.24788
7.27157
7.29757
7.31516
7.3288
7.34346
7.36295
7.37647
7.38777
7.40046
7.40925
7.41664
7.42491
7.43074
7.4358
7.44159
7.4453
7.44785
7.45013
7.45273
7.45458
7.45616
7.45789
7.45912
7.46016
7.4613
7.46211
7.46278
7.46354
7.46458
7.46538
7.46616
7.46717
7.468
7.46896
7.47035
7.47113
7.4715
7.47164
4.12695
4.13207
4.1432
4.16255
4.1949
4.25105
4.3581
4.58744
5.06603
5.337
5.56082
5.87663
6.05982
6.21218
6.42077
6.54576
6.6546
6.80738
6.88907
6.93969
6.98776
7.0554
7.09636
7.13055
7.17533
7.20222
7.2242
7.2522
7.26858
7.28057
7.29437
7.31627
7.32924
7.33983
7.35361
7.36191
7.36879
7.3777
7.38319
7.38793
7.39431
7.39783
7.40006
7.40213
7.40491
7.40663
7.40808
7.40993
7.41107
7.41203
7.41324
7.41398
7.41456
7.41528
7.41644
7.41719
7.41793
7.41904
7.41984
7.4208
7.42248
7.42327
7.42361
7.42373
4.00186
4.00581
4.01443
4.0295
4.05497
4.10025
4.19159
4.41466
5.00549
5.26521
5.472
5.83971
6.00984
6.14832
6.38718
6.50208
6.60146
6.77933
6.85504
6.8974
6.94004
7.01659
7.05383
7.08436
7.13459
7.15895
7.17848
7.20969
7.2244
7.23435
7.24685
7.27231
7.28428
7.29377
7.30926
7.31678
7.3229
7.33284
7.3378
7.34206
7.34934
7.35255
7.3544
7.35621
7.35929
7.36083
7.36211
7.36415
7.36517
7.36601
7.36734
7.36799
7.36848
7.36912
7.37046
7.37115
7.37182
7.37307
7.3738
7.37472
7.37679
7.37756
7.37786
7.37796
3.88198
3.88477
3.89087
3.90158
3.91983
3.95293
4.02347
4.22458
4.96998
5.20016
5.3762
5.81778
5.9642
6.08047
6.36346
6.46139
6.54535
6.75944
6.82478
6.85697
6.89214
6.98216
7.01363
7.03888
7.09741
7.11792
7.134
7.17019
7.18249
7.19
7.20055
7.23122
7.24147
7.24934
7.2674
7.27374
7.27878
7.29031
7.29447
7.29802
7.30664
7.30937
7.31076
7.31224
7.31579
7.31708
7.31813
7.32046
7.32131
7.322
7.32352
7.32406
7.32442
7.32497
7.32656
7.32715
7.32771
7.32918
7.32979
7.3306
7.33322
7.33392
7.33415
7.33422
3.76717
3.76882
3.77243
3.77879
3.78969
3.80974
3.85462
4.00916
4.96789
5.1413
5.26818
5.81507
5.92244
6.00529
6.35223
6.42335
6.48367
6.74963
6.79791
6.81815
6.84296
6.95287
6.97559
6.99336
7.06423
7.07899
7.09024
7.13391
7.14273
7.14743
7.15507
7.19321
7.20072
7.20626
7.22813
7.23269
7.23623
7.25012
7.2531
7.25561
7.2662
7.26819
7.26906
7.27009
7.27436
7.27528
7.27601
7.2788
7.27941
7.27989
7.2817
7.28209
7.28231
7.2827
7.28468
7.2851
7.2855
7.28728
7.28772
7.28833
7.2917
7.29224
7.29239
7.29243
3.65729
3.65783
3.65902
3.66112
3.66473
3.67141
3.68697
3.75771
5.01029
5.08766
5.14115
5.83733
5.8839
5.91849
6.3571
6.3876
6.41307
6.75257
6.77382
6.78078
6.79114
6.92982
6.93952
6.94685
7.03569
7.04198
7.04659
7.10121
7.10497
7.10658
7.10986
7.15862
7.16187
7.16416
7.19157
7.19351
7.19497
7.21232
7.21358
7.21463
7.22803
7.2289
7.2292
7.22962
7.23496
7.23535
7.23564
7.23912
7.23937
7.23957
7.24182
7.24198
7.24206
7.24223
7.24473
7.24491
7.24508
7.24732
7.2475
7.24777
7.25218
7.25243
7.25248
7.2525
)
;

boundaryField
{
    left
    {
        type            zeroGradient;
    }
    right
    {
        type            zeroGradient;
    }
    interface
    {
        type            fixedValue;
        value           nonuniform List<scalar> 
64
(
3.60356
3.60356
3.60356
3.60356
3.60356
3.60356
3.60356
3.60356
5.06208
5.06208
5.06208
5.86538
5.86538
5.86538
6.37027
6.37027
6.37027
6.76243
6.76243
6.76243
6.76243
6.92196
6.92196
6.92196
7.02394
7.02394
7.02394
7.08658
7.08658
7.08658
7.08658
7.14292
7.14292
7.14292
7.17439
7.17439
7.17439
7.19428
7.19428
7.19428
7.20972
7.20972
7.20972
7.20972
7.21584
7.21584
7.21584
7.21981
7.21981
7.21981
7.22239
7.22239
7.22239
7.22239
7.22528
7.22528
7.22528
7.22785
7.22785
7.22785
7.23298
7.23298
7.23298
7.23298
)
;
    }
    bottom
    {
        type            fixedValue;
        value           uniform 10;
    }
    defaultFaces
    {
        type            empty;
    }
}


// ************************************************************************* //
