/*--------------------------------*- C++ -*----------------------------------*\
| =========                 |                                                 |
| \\      /  F ield         | OpenFOAM: The Open Source CFD Toolbox           |
|  \\    /   O peration     | Version:  5.x                                   |
|   \\  /    A nd           | Web:      www.OpenFOAM.org                      |
|    \\/     M anipulation  |                                                 |
\*---------------------------------------------------------------------------*/
FoamFile
{
    version     2.0;
    format      ascii;
    class       volScalarField;
    location    "0.8";
    object      gradTy;
}
// * * * * * * * * * * * * * * * * * * * * * * * * * * * * * * * * * * * * * //

dimensions      [0 -1 0 1 0 0 0];

internalField   nonuniform List<scalar> 
2048
(
-26.6439
-26.6082
-26.5374
-26.4328
-26.2965
-26.131
-25.9401
-25.7279
-25.4992
-25.2592
-25.0132
-24.7663
-24.523
-24.2875
-24.063
-23.8518
-23.6558
-23.4758
-23.3122
-23.1649
-23.0331
-22.9162
-22.8131
-22.7226
-22.6435
-22.5747
-22.5151
-22.4635
-22.4191
-22.3808
-22.348
-22.3198
-22.2956
-22.275
-22.2573
-22.2423
-22.2294
-22.2185
-22.2091
-22.2012
-22.1945
-22.1887
-22.1839
-22.1798
-22.1763
-22.1733
-22.1708
-22.1686
-22.1668
-22.1652
-22.1639
-22.1627
-22.1617
-22.1608
-22.16
-22.1593
-22.1587
-22.1582
-22.1578
-22.1574
-22.1571
-22.1568
-22.1567
-22.1566
-26.6713
-26.635
-26.5632
-26.457
-26.3183
-26.15
-25.9556
-25.7394
-25.5064
-25.2621
-25.0119
-24.7612
-24.5146
-24.2764
-24.0498
-23.8372
-23.6403
-23.46
-23.2965
-23.1495
-23.0184
-22.9023
-22.8
-22.7104
-22.6323
-22.5644
-22.5056
-22.4548
-22.4111
-22.3734
-22.3411
-22.3135
-22.2898
-22.2695
-22.2522
-22.2374
-22.2248
-22.2141
-22.2049
-22.1971
-22.1905
-22.1849
-22.1802
-22.1761
-22.1727
-22.1698
-22.1673
-22.1652
-22.1634
-22.1619
-22.1606
-22.1594
-22.1584
-22.1576
-22.1568
-22.1561
-22.1555
-22.155
-22.1546
-22.1542
-22.1539
-22.1536
-22.1535
-22.1534
-26.7234
-26.6863
-26.6125
-26.5031
-26.3602
-26.1863
-25.9852
-25.7614
-25.5203
-25.2676
-25.0093
-24.7511
-24.4982
-24.2548
-24.0243
-23.8091
-23.6107
-23.4298
-23.2665
-23.1203
-22.9905
-22.8759
-22.7753
-22.6875
-22.6111
-22.5449
-22.4877
-22.4384
-22.3959
-22.3595
-22.3283
-22.3016
-22.2787
-22.2591
-22.2424
-22.2282
-22.2161
-22.2057
-22.1969
-22.1895
-22.1831
-22.1777
-22.1732
-22.1693
-22.166
-22.1632
-22.1608
-22.1588
-22.1571
-22.1556
-22.1544
-22.1533
-22.1523
-22.1515
-22.1507
-22.1501
-22.1495
-22.149
-22.1485
-22.1481
-22.1478
-22.1476
-22.1474
-22.1473
-26.7978
-26.7593
-26.6828
-26.5692
-26.4203
-26.2385
-26.0278
-25.793
-25.5399
-25.275
-25.005
-24.7362
-24.4741
-24.2234
-23.9874
-23.7685
-23.5681
-23.3865
-23.2237
-23.0788
-22.9509
-22.8385
-22.7405
-22.6552
-22.5813
-22.5175
-22.4625
-22.4153
-22.3748
-22.34
-22.3103
-22.2849
-22.2632
-22.2446
-22.2288
-22.2153
-22.2038
-22.194
-22.1857
-22.1787
-22.1727
-22.1676
-22.1633
-22.1596
-22.1566
-22.1539
-22.1517
-22.1498
-22.1482
-22.1468
-22.1457
-22.1446
-22.1437
-22.1429
-22.1422
-22.1416
-22.141
-22.1405
-22.14
-22.1396
-22.1393
-22.1391
-22.1389
-22.1388
-26.892
-26.8521
-26.7724
-26.6536
-26.4972
-26.3055
-26.0825
-25.8333
-25.5646
-25.2838
-24.9985
-24.7159
-24.4422
-24.1822
-23.9395
-23.7162
-23.5134
-23.3313
-23.1693
-23.0263
-22.9009
-22.7916
-22.6968
-22.6148
-22.5441
-22.4834
-22.4313
-22.3866
-22.3485
-22.3158
-22.288
-22.2642
-22.2439
-22.2266
-22.2118
-22.1993
-22.1886
-22.1795
-22.1718
-22.1652
-22.1597
-22.155
-22.151
-22.1476
-22.1448
-22.1424
-22.1403
-22.1386
-22.1371
-22.1358
-22.1347
-22.1338
-22.133
-22.1322
-22.1315
-22.1309
-22.1304
-22.1299
-22.1294
-22.129
-22.1287
-22.1284
-22.1282
-22.1282
-27.0043
-26.9627
-26.8795
-26.755
-26.5899
-26.3866
-26.1486
-25.8819
-25.5939
-25.2935
-24.9894
-24.69
-24.4022
-24.1312
-23.8807
-23.6526
-23.4474
-23.2651
-23.1044
-22.9639
-22.8419
-22.7364
-22.6455
-22.5675
-22.5007
-22.4436
-22.3949
-22.3534
-22.318
-22.2878
-22.2621
-22.2402
-22.2215
-22.2057
-22.1921
-22.1806
-22.1709
-22.1626
-22.1555
-22.1495
-22.1445
-22.1402
-22.1366
-22.1336
-22.131
-22.1289
-22.127
-22.1255
-22.1241
-22.123
-22.122
-22.1211
-22.1204
-22.1197
-22.119
-22.1184
-22.1179
-22.1174
-22.117
-22.1166
-22.1162
-22.116
-22.1158
-22.1157
-27.1327
-27.0896
-27.0029
-26.8723
-26.6979
-26.4813
-26.226
-25.9385
-25.6275
-25.3034
-24.9769
-24.6576
-24.3536
-24.0702
-23.8112
-23.5779
-23.3707
-23.1885
-23.0299
-22.8927
-22.7748
-22.6739
-22.5878
-22.5145
-22.4522
-22.3993
-22.3544
-22.3163
-22.284
-22.2566
-22.2333
-22.2135
-22.1967
-22.1824
-22.1702
-22.1599
-22.1511
-22.1436
-22.1373
-22.132
-22.1275
-22.1237
-22.1205
-22.1179
-22.1156
-22.1137
-22.1121
-22.1107
-22.1095
-22.1085
-22.1077
-22.1069
-22.1062
-22.1056
-22.105
-22.1044
-22.1039
-22.1034
-22.103
-22.1026
-22.1022
-22.1019
-22.1017
-22.1017
-27.2756
-27.2311
-27.1413
-27.0049
-26.8207
-26.5895
-26.3146
-26.0029
-25.6647
-25.3129
-24.9602
-24.6182
-24.2958
-23.9989
-23.7307
-23.4925
-23.2836
-23.1024
-22.9466
-22.8137
-22.7008
-22.6053
-22.5247
-22.4567
-22.3994
-22.3512
-22.3105
-22.2762
-22.2473
-22.2229
-22.2022
-22.1847
-22.1698
-22.1572
-22.1465
-22.1374
-22.1297
-22.1231
-22.1176
-22.113
-22.1091
-22.1058
-22.103
-22.1007
-22.0988
-22.0972
-22.0958
-22.0946
-22.0936
-22.0928
-22.092
-22.0914
-22.0908
-22.0902
-22.0897
-22.0891
-22.0886
-22.0882
-22.0877
-22.0873
-22.0869
-22.0866
-22.0864
-22.0863
-27.4311
-27.3858
-27.2936
-27.1519
-26.9582
-26.7116
-26.4147
-26.0752
-25.7055
-25.3213
-24.9385
-24.5707
-24.228
-23.9166
-23.6393
-23.3965
-23.1866
-23.0073
-22.8554
-22.7277
-22.6208
-22.5316
-22.4572
-22.3951
-22.3434
-22.3002
-22.2641
-22.2339
-22.2086
-22.1874
-22.1695
-22.1543
-22.1415
-22.1306
-22.1214
-22.1135
-22.1069
-22.1014
-22.0967
-22.0927
-22.0894
-22.0867
-22.0844
-22.0825
-22.0809
-22.0795
-22.0784
-22.0774
-22.0766
-22.0759
-22.0753
-22.0748
-22.0742
-22.0738
-22.0733
-22.0728
-22.0723
-22.0718
-22.0714
-22.0709
-22.0705
-22.0702
-22.07
-22.0699
-27.5976
-27.5521
-27.4586
-27.3129
-27.1102
-26.8478
-26.5269
-26.1557
-25.7495
-25.3279
-24.9107
-24.5141
-24.1495
-23.8231
-23.5368
-23.2901
-23.0803
-22.9039
-22.7571
-22.6357
-22.5357
-22.4536
-22.3861
-22.3306
-22.2848
-22.247
-22.2158
-22.1899
-22.1684
-22.1505
-22.1354
-22.1227
-22.112
-22.1029
-22.0952
-22.0887
-22.0832
-22.0786
-22.0748
-22.0716
-22.0689
-22.0667
-22.0648
-22.0633
-22.062
-22.061
-22.0601
-22.0594
-22.0588
-22.0582
-22.0577
-22.0573
-22.0569
-22.0565
-22.056
-22.0556
-22.0551
-22.0547
-22.0542
-22.0537
-22.0533
-22.0529
-22.0527
-22.0526
-27.7731
-27.7283
-27.635
-27.4872
-27.2771
-26.999
-26.652
-26.2449
-25.7964
-25.3318
-24.8756
-24.4473
-24.0594
-23.7177
-23.4232
-23.1736
-22.9651
-22.7929
-22.6523
-22.5384
-22.4465
-22.3723
-22.3124
-22.2639
-22.2244
-22.1924
-22.1662
-22.1448
-22.1273
-22.1128
-22.1006
-22.0904
-22.0818
-22.0745
-22.0684
-22.0632
-22.0588
-22.0552
-22.0522
-22.0497
-22.0476
-22.046
-22.0446
-22.0435
-22.0426
-22.0418
-22.0412
-22.0407
-22.0402
-22.0398
-22.0395
-22.0392
-22.0388
-22.0385
-22.0381
-22.0377
-22.0373
-22.0368
-22.0363
-22.0358
-22.0353
-22.035
-22.0347
-22.0346
-27.9556
-27.9126
-27.8218
-27.6744
-27.4592
-27.1661
-26.7914
-26.3435
-25.8461
-25.3318
-24.8319
-24.369
-23.9567
-23.6
-23.2982
-23.0473
-22.8415
-22.6751
-22.5421
-22.4368
-22.354
-22.2886
-22.2368
-22.1957
-22.163
-22.1369
-22.116
-22.0992
-22.0857
-22.0746
-22.0654
-22.0577
-22.0512
-22.0457
-22.0411
-22.0372
-22.034
-22.0313
-22.0291
-22.0274
-22.0259
-22.0248
-22.0239
-22.0231
-22.0226
-22.0221
-22.0218
-22.0215
-22.0212
-22.021
-22.0208
-22.0205
-22.0203
-22.0201
-22.0198
-22.0194
-22.019
-22.0185
-22.0179
-22.0174
-22.0169
-22.0165
-22.0162
-22.0161
-28.1431
-28.1033
-28.0175
-27.874
-27.6569
-27.3507
-26.9466
-26.4525
-25.8982
-25.3269
-24.7779
-24.2777
-23.8405
-23.4698
-23.1622
-22.9115
-22.7103
-22.551
-22.427
-22.3317
-22.259
-22.2032
-22.1602
-22.1269
-22.1011
-22.0811
-22.0655
-22.0534
-22.0439
-22.0364
-22.0302
-22.025
-22.0205
-22.0167
-22.0136
-22.011
-22.0089
-22.0072
-22.0058
-22.0047
-22.0039
-22.0033
-22.0028
-22.0025
-22.0023
-22.0021
-22.002
-22.0019
-22.0018
-22.0018
-22.0017
-22.0016
-22.0015
-22.0013
-22.001
-22.0007
-22.0003
-21.9998
-21.9993
-21.9987
-21.9981
-21.9976
-21.9973
-21.9972
-28.3333
-28.2983
-28.2205
-28.0852
-27.8708
-27.5544
-27.1199
-26.5733
-25.9522
-25.3153
-24.712
-24.172
-23.7098
-23.3265
-23.0152
-22.7669
-22.572
-22.4214
-22.3078
-22.2239
-22.1624
-22.1169
-22.0831
-22.058
-22.0393
-22.0254
-22.0152
-22.0078
-22.0025
-21.9984
-21.9952
-21.9924
-21.9899
-21.9878
-21.9861
-21.9848
-21.9837
-21.9829
-21.9824
-21.982
-21.9817
-21.9816
-21.9816
-21.9817
-21.9818
-21.9819
-21.9821
-21.9822
-21.9823
-21.9824
-21.9824
-21.9824
-21.9824
-21.9823
-21.9821
-21.9818
-21.9814
-21.981
-21.9804
-21.9797
-21.9791
-21.9785
-21.9782
-21.978
-28.524
-28.4956
-28.4293
-28.3072
-28.1014
-27.7792
-27.3141
-26.7076
-26.0075
-25.2951
-24.632
-24.0501
-23.5639
-23.1703
-22.8576
-22.614
-22.4274
-22.2871
-22.1853
-22.1142
-22.0649
-22.0304
-22.0063
-21.9895
-21.9779
-21.9703
-21.9655
-21.9628
-21.9615
-21.961
-21.9607
-21.9602
-21.9596
-21.9592
-21.9588
-21.9587
-21.9587
-21.9588
-21.959
-21.9593
-21.9596
-21.96
-21.9604
-21.9609
-21.9613
-21.9617
-21.9621
-21.9624
-21.9626
-21.9629
-21.9631
-21.9632
-21.9632
-21.9632
-21.9631
-21.9629
-21.9625
-21.962
-21.9614
-21.9606
-21.9599
-21.9593
-21.9589
-21.9587
-28.7129
-28.6929
-28.642
-28.5391
-28.349
-28.0275
-27.5329
-26.8576
-26.0628
-25.2636
-24.5359
-23.9105
-23.4018
-23.0011
-22.6898
-22.4536
-22.2775
-22.1487
-22.0601
-22.0032
-21.9674
-21.9444
-21.9303
-21.922
-21.9175
-21.916
-21.9167
-21.9186
-21.9213
-21.9243
-21.9268
-21.9285
-21.9298
-21.9309
-21.9318
-21.9328
-21.9338
-21.9348
-21.9358
-21.9367
-21.9375
-21.9384
-21.9393
-21.9401
-21.9409
-21.9415
-21.9421
-21.9426
-21.943
-21.9434
-21.9437
-21.9439
-21.9441
-21.9442
-21.9441
-21.9439
-21.9436
-21.9431
-21.9424
-21.9415
-21.9407
-21.9399
-21.9395
-21.9392
-28.8978
-28.8879
-28.8565
-28.7793
-28.614
-28.302
-27.7806
-27.0265
-26.1164
-25.2178
-24.4214
-23.7513
-23.2229
-22.8194
-22.5124
-22.2865
-22.1232
-22.0069
-21.9328
-21.8918
-21.8706
-21.8596
-21.8555
-21.8557
-21.8583
-21.8629
-21.8689
-21.8753
-21.8821
-21.8886
-21.8938
-21.8976
-21.9005
-21.903
-21.9052
-21.9073
-21.9093
-21.9111
-21.9127
-21.9143
-21.9156
-21.917
-21.9183
-21.9195
-21.9205
-21.9214
-21.9222
-21.9229
-21.9235
-21.924
-21.9244
-21.9248
-21.925
-21.9252
-21.9252
-21.925
-21.9247
-21.9242
-21.9235
-21.9225
-21.9215
-21.9206
-21.9201
-21.9198
-29.0763
-29.0785
-29.0706
-29.0263
-28.8963
-28.6055
-28.0631
-27.2184
-26.1651
-25.1534
-24.2865
-23.5706
-23.0267
-22.6259
-22.3261
-22.1137
-21.9656
-21.8623
-21.8039
-21.7806
-21.7752
-21.7763
-21.7824
-21.7912
-21.8005
-21.8111
-21.8223
-21.8331
-21.8438
-21.8539
-21.8618
-21.8674
-21.8718
-21.8757
-21.879
-21.8822
-21.8851
-21.8877
-21.89
-21.8921
-21.894
-21.8957
-21.8975
-21.899
-21.9003
-21.9015
-21.9025
-21.9033
-21.9041
-21.9047
-21.9052
-21.9057
-21.906
-21.9063
-21.9063
-21.9063
-21.906
-21.9055
-21.9047
-21.9036
-21.9024
-21.9013
-21.9008
-21.9003
-29.2466
-29.2624
-29.2818
-29.2778
-29.195
-28.9409
-28.3873
-27.4391
-26.2039
-25.0655
-24.1299
-23.3663
-22.8126
-22.4221
-22.1316
-21.9362
-21.8062
-21.7152
-21.6735
-21.6702
-21.6822
-21.695
-21.7112
-21.7287
-21.7443
-21.7608
-21.7772
-21.792
-21.8067
-21.8204
-21.831
-21.838
-21.8438
-21.849
-21.8533
-21.8575
-21.8613
-21.8646
-21.8676
-21.8703
-21.8725
-21.8747
-21.8769
-21.8788
-21.8804
-21.8817
-21.8829
-21.8839
-21.8848
-21.8855
-21.8862
-21.8867
-21.8872
-21.8875
-21.8876
-21.8876
-21.8874
-21.8869
-21.8861
-21.8848
-21.8834
-21.882
-21.8814
-21.881
-29.4068
-29.4374
-29.4877
-29.5311
-29.5089
-29.3107
-28.7621
-27.6971
-26.225
-24.9478
-23.9514
-23.1359
-22.5804
-22.2101
-21.9292
-21.755
-21.6466
-21.5658
-21.5417
-21.5616
-21.5924
-21.616
-21.6423
-21.6685
-21.6897
-21.7119
-21.7336
-21.752
-21.7706
-21.7881
-21.8013
-21.8094
-21.8164
-21.8228
-21.828
-21.8332
-21.838
-21.8419
-21.8456
-21.8488
-21.8514
-21.8539
-21.8565
-21.8588
-21.8606
-21.8622
-21.8636
-21.8647
-21.8657
-21.8666
-21.8673
-21.8679
-21.8685
-21.8689
-21.8691
-21.8692
-21.869
-21.8685
-21.8677
-21.8662
-21.8644
-21.8629
-21.8621
-21.8617
-29.5553
-29.6017
-29.6856
-29.7831
-29.8356
-29.7172
-29.1981
-28.0047
-26.2158
-24.7926
-23.7528
-22.876
-22.3299
-21.9932
-21.719
-21.5712
-21.4891
-21.4138
-21.4085
-21.4553
-21.5069
-21.5394
-21.5758
-21.611
-21.6367
-21.6647
-21.6917
-21.7131
-21.7356
-21.7573
-21.7731
-21.7816
-21.7897
-21.7974
-21.8032
-21.8094
-21.8152
-21.8196
-21.8239
-21.8276
-21.8305
-21.8334
-21.8364
-21.8391
-21.8411
-21.8429
-21.8444
-21.8457
-21.8468
-21.8478
-21.8486
-21.8494
-21.85
-21.8505
-21.8507
-21.8509
-21.8508
-21.8504
-21.8495
-21.8478
-21.8456
-21.8438
-21.843
-21.8426
-29.6909
-29.7535
-29.8729
-30.0303
-30.1716
-30.161
-29.7077
-28.3803
-26.1568
-24.5912
-23.5399
-22.5814
-22.061
-21.7765
-21.5001
-21.3858
-21.3369
-21.2581
-21.2734
-21.3524
-21.4271
-21.4651
-21.5117
-21.5568
-21.5852
-21.619
-21.6518
-21.6752
-21.7017
-21.7281
-21.7465
-21.7545
-21.7636
-21.7727
-21.7789
-21.7861
-21.7929
-21.7977
-21.8026
-21.807
-21.8099
-21.8132
-21.8167
-21.8197
-21.8219
-21.8239
-21.8256
-21.8269
-21.8282
-21.8293
-21.8301
-21.831
-21.8318
-21.8323
-21.8326
-21.8329
-21.8329
-21.8325
-21.8316
-21.8297
-21.8269
-21.8248
-21.824
-21.8238
-29.8126
-29.8913
-30.0473
-30.2687
-30.5122
-30.6412
-30.3049
-28.8517
-26.018
-24.3336
-23.3239
-22.2443
-21.7738
-21.5675
-21.2699
-21.1998
-21.1945
-21.097
-21.1356
-21.2541
-21.3549
-21.3924
-21.4501
-21.5065
-21.5346
-21.575
-21.6143
-21.638
-21.6688
-21.7006
-21.7219
-21.7279
-21.7381
-21.749
-21.755
-21.7634
-21.7714
-21.7763
-21.7819
-21.7869
-21.7897
-21.7934
-21.7974
-21.8008
-21.8031
-21.8052
-21.8071
-21.8085
-21.8099
-21.8111
-21.812
-21.813
-21.8139
-21.8145
-21.8148
-21.8151
-21.8153
-21.8149
-21.8141
-21.812
-21.8084
-21.806
-21.8053
-21.8053
-29.9199
-30.0143
-30.2064
-30.4943
-30.8512
-31.1543
-31.0046
-29.4606
-25.7536
-24.0094
-23.1246
-21.8517
-21.4682
-21.3777
-21.0232
-21.014
-21.0684
-20.9268
-20.9942
-21.1616
-21.2927
-21.3202
-21.391
-21.4612
-21.4845
-21.5327
-21.5799
-21.6012
-21.6368
-21.6751
-21.6998
-21.7015
-21.7133
-21.7264
-21.7315
-21.7413
-21.7508
-21.7553
-21.7617
-21.7675
-21.7699
-21.774
-21.7787
-21.7825
-21.7846
-21.787
-21.7891
-21.7905
-21.792
-21.7933
-21.7942
-21.7953
-21.7964
-21.7971
-21.7973
-21.7978
-21.7981
-21.7977
-21.7972
-21.7949
-21.79
-21.7876
-21.7869
-21.7872
-30.0124
-30.1215
-30.3484
-30.7028
-31.1813
-31.6929
-31.8205
-30.2695
-25.2953
-23.6088
-22.974
-21.3826
-21.1448
-21.2232
-20.7508
-20.8293
-20.968
-20.7418
-20.8482
-21.0766
-21.2436
-21.2463
-21.3341
-21.4225
-21.4337
-21.4919
-21.5493
-21.5643
-21.6056
-21.6519
-21.6806
-21.675
-21.689
-21.7054
-21.7082
-21.7198
-21.7313
-21.7346
-21.7422
-21.749
-21.7504
-21.755
-21.7605
-21.7648
-21.7667
-21.7693
-21.7717
-21.7729
-21.7746
-21.7761
-21.7769
-21.7781
-21.7793
-21.7802
-21.7803
-21.781
-21.7815
-21.781
-21.7808
-21.7785
-21.7718
-21.7694
-21.769
-21.7695
-30.0902
-30.2128
-30.4718
-30.8903
-31.4939
-32.2454
-32.7627
-31.371
-24.5422
-23.1242
-22.9207
-20.804
-20.8047
-21.1277
-20.4373
-20.6465
-20.9065
-20.5327
-20.6964
-21.001
-21.2122
-21.1673
-21.2794
-21.3925
-21.3803
-21.4527
-21.5239
-21.5261
-21.575
-21.6311
-21.6654
-21.6475
-21.6654
-21.6863
-21.6848
-21.6991
-21.7131
-21.7142
-21.7233
-21.7315
-21.7312
-21.7365
-21.743
-21.7478
-21.7492
-21.7522
-21.7549
-21.7558
-21.7577
-21.7594
-21.7601
-21.7614
-21.7628
-21.7638
-21.7637
-21.7646
-21.7654
-21.7647
-21.7651
-21.763
-21.7537
-21.7516
-21.7516
-21.7524
-30.1537
-30.2881
-30.5758
-31.0533
-31.7801
-32.7948
-33.8323
-32.9007
-23.3481
-22.5535
-23.0365
-20.0649
-20.4508
-21.1248
-20.0584
-20.4669
-20.9028
-20.2854
-20.5386
-20.9365
-21.2044
-21.0777
-21.2267
-21.3746
-21.3215
-21.4151
-21.5053
-21.4853
-21.5448
-21.6129
-21.6551
-21.6177
-21.6422
-21.6697
-21.6607
-21.679
-21.6966
-21.6938
-21.7051
-21.7153
-21.7121
-21.7185
-21.7261
-21.7316
-21.732
-21.7355
-21.7386
-21.7391
-21.7413
-21.7432
-21.7436
-21.7451
-21.7468
-21.748
-21.7475
-21.7487
-21.7498
-21.7488
-21.7499
-21.7486
-21.7355
-21.7341
-21.7347
-21.7356
-30.2035
-30.3478
-30.6597
-31.1892
-32.0307
-33.319
-35.0146
-35.0543
-21.5045
-21.9041
-23.4232
-19.0889
-20.0885
-21.2609
-19.5777
-20.2926
-20.9832
-19.9788
-20.3755
-20.8849
-21.2281
-20.9695
-21.1761
-21.3732
-21.2533
-21.379
-21.496
-21.4395
-21.5148
-21.5971
-21.6513
-21.5839
-21.6195
-21.6565
-21.6352
-21.6595
-21.6822
-21.6727
-21.6874
-21.7005
-21.6926
-21.7008
-21.7097
-21.7162
-21.715
-21.7192
-21.723
-21.7226
-21.7252
-21.7276
-21.7275
-21.7292
-21.7312
-21.7327
-21.7314
-21.7331
-21.7348
-21.733
-21.7352
-21.7354
-21.7169
-21.7168
-21.7182
-21.7191
-30.2403
-30.3926
-30.7238
-31.296
-32.2374
-33.7908
-36.2687
-38.1095
-18.7194
-21.1996
-24.2211
-17.7643
-19.7287
-21.5998
-18.9419
-20.1271
-21.1839
-19.5825
-20.2107
-20.8473
-21.2945
-20.8316
-21.1278
-21.3946
-21.1695
-21.3446
-21.4994
-21.3855
-21.4852
-21.5837
-21.6561
-21.5437
-21.5971
-21.6476
-21.607
-21.6405
-21.6702
-21.6503
-21.6702
-21.6874
-21.6724
-21.6833
-21.6938
-21.7016
-21.698
-21.7032
-21.7079
-21.7062
-21.7094
-21.7123
-21.7114
-21.7135
-21.7158
-21.7177
-21.7154
-21.7177
-21.7202
-21.7172
-21.7209
-21.7236
-21.6973
-21.6996
-21.7021
-21.703
-30.2651
-30.4233
-30.7687
-31.3733
-32.3939
-34.1803
-37.5134
-42.4539
-14.59
-20.4877
-25.6189
-15.9331
-19.39
-22.2271
-18.076
-19.9769
-21.5536
-19.0537
-20.0518
-20.8238
-21.4187
-20.6484
-21.0833
-21.4476
-21.0622
-21.3127
-21.5202
-21.3192
-21.4566
-21.5723
-21.6727
-21.4936
-21.5756
-21.6448
-21.5746
-21.6221
-21.6617
-21.6258
-21.6534
-21.6767
-21.651
-21.6663
-21.6784
-21.6879
-21.6806
-21.6876
-21.6934
-21.6898
-21.694
-21.6975
-21.6954
-21.6981
-21.7007
-21.7033
-21.6994
-21.7026
-21.7062
-21.7012
-21.7068
-21.714
-21.6762
-21.6826
-21.6863
-21.6872
-30.2789
-30.4411
-30.7957
-31.4216
-32.4963
-34.4582
-38.6084
-48.6196
-8.57141
-19.8518
-27.8639
-13.3763
-19.1034
-23.2554
-16.877
-19.8529
-22.1572
-18.3335
-19.9134
-20.8123
-21.6211
-20.3993
-21.0449
-21.5444
-20.9206
-21.2848
-21.5652
-21.2351
-21.4305
-21.5623
-21.7057
-21.4298
-21.5557
-21.6507
-21.5364
-21.6051
-21.6582
-21.5985
-21.6377
-21.6694
-21.6279
-21.6502
-21.6638
-21.6759
-21.6631
-21.6727
-21.6802
-21.6736
-21.6792
-21.6838
-21.6799
-21.6834
-21.6863
-21.69
-21.6837
-21.6881
-21.6933
-21.6853
-21.6933
-21.7074
-21.6535
-21.6664
-21.6714
-21.6725
-30.2829
-30.4471
-30.8063
-31.4425
-32.5443
-34.6009
-39.3309
-57.3228
0.062462
-19.4244
-31.2726
-9.79776
-18.9166
-24.8294
-15.2058
-19.7716
-23.0779
-17.3417
-19.8186
-20.8064
-21.9286
-20.0563
-21.0162
-21.6997
-20.7297
-21.2626
-21.6423
-21.1251
-21.4089
-21.552
-21.7607
-21.3461
-21.5383
-21.668
-21.4896
-21.5895
-21.6611
-21.5668
-21.623
-21.6664
-21.6022
-21.6351
-21.6498
-21.6657
-21.6451
-21.6584
-21.6682
-21.6573
-21.6651
-21.671
-21.6645
-21.6692
-21.6723
-21.6776
-21.668
-21.6741
-21.6816
-21.6691
-21.6799
-21.7048
-21.628
-21.6511
-21.6572
-21.6585
)
;

boundaryField
{
    left
    {
        type            calculated;
        value           nonuniform List<scalar> 
32
(
-26.6439
-26.6713
-26.7234
-26.7978
-26.892
-27.0043
-27.1327
-27.2756
-27.4311
-27.5976
-27.7731
-27.9556
-28.1431
-28.3333
-28.524
-28.7129
-28.8978
-29.0763
-29.2466
-29.4068
-29.5553
-29.6909
-29.8126
-29.9199
-30.0124
-30.0902
-30.1537
-30.2035
-30.2403
-30.2651
-30.2789
-30.2829
)
;
    }
    right
    {
        type            calculated;
        value           nonuniform List<scalar> 
32
(
-22.1566
-22.1534
-22.1473
-22.1388
-22.1282
-22.1157
-22.1017
-22.0863
-22.0699
-22.0526
-22.0346
-22.0161
-21.9972
-21.978
-21.9587
-21.9392
-21.9198
-21.9003
-21.881
-21.8617
-21.8426
-21.8238
-21.8053
-21.7872
-21.7695
-21.7524
-21.7356
-21.7191
-21.703
-21.6872
-21.6725
-21.6585
)
;
    }
    interface
    {
        type            calculated;
        value           nonuniform List<scalar> 
64
(
-30.2826
-30.4473
-30.8076
-31.4463
-32.5548
-34.6361
-39.5652
-62.4111
5.13658
-19.2828
-33.3121
-7.71067
-18.8554
-25.773
-14.2322
-19.7441
-23.6293
-16.7663
-19.7856
-20.8037
-22.1122
-19.8572
-21.0047
-21.7941
-20.6196
-21.2532
-21.69
-21.0624
-21.3994
-21.5464
-21.7943
-21.2983
-21.5302
-21.6797
-21.4634
-21.582
-21.6642
-21.5494
-21.6157
-21.6661
-21.5884
-21.6278
-21.6428
-21.661
-21.6357
-21.6513
-21.6624
-21.649
-21.658
-21.6647
-21.6567
-21.6622
-21.6653
-21.6716
-21.6599
-21.6671
-21.6759
-21.6607
-21.6731
-21.7045
-21.6143
-21.6437
-21.6502
-21.6515
)
;
    }
    bottom
    {
        type            calculated;
        value           nonuniform List<scalar> 
64
(
-26.6368
-26.6012
-26.5307
-26.4266
-26.2908
-26.1261
-25.9361
-25.7249
-25.4973
-25.2584
-25.0135
-24.7676
-24.5252
-24.2904
-24.0664
-23.8556
-23.6598
-23.4799
-23.3163
-23.1689
-23.037
-22.9198
-22.8165
-22.7257
-22.6464
-22.5774
-22.5176
-22.4658
-22.4212
-22.3827
-22.3497
-22.3214
-22.2972
-22.2764
-22.2587
-22.2436
-22.2306
-22.2196
-22.2102
-22.2023
-22.1955
-22.1897
-22.1849
-22.1807
-22.1772
-22.1742
-22.1717
-22.1695
-22.1677
-22.1661
-22.1647
-22.1635
-22.1625
-22.1616
-22.1609
-22.1602
-22.1596
-22.159
-22.1586
-22.1582
-22.1579
-22.1577
-22.1575
-22.1574
)
;
    }
    defaultFaces
    {
        type            empty;
    }
}


// ************************************************************************* //
