/*--------------------------------*- C++ -*----------------------------------*\
| =========                 |                                                 |
| \\      /  F ield         | OpenFOAM: The Open Source CFD Toolbox           |
|  \\    /   O peration     | Version:  5.x                                   |
|   \\  /    A nd           | Web:      www.OpenFOAM.org                      |
|    \\/     M anipulation  |                                                 |
\*---------------------------------------------------------------------------*/
FoamFile
{
    version     2.0;
    format      ascii;
    class       volScalarField;
    location    "0.8";
    object      gradTx;
}
// * * * * * * * * * * * * * * * * * * * * * * * * * * * * * * * * * * * * * //

dimensions      [0 -1 0 1 0 0 0];

internalField   nonuniform List<scalar> 
2048
(
0.00817819
0.0243815
0.0401488
0.0551621
0.0690725
0.0815458
0.0922445
0.100877
0.107234
0.111217
0.112845
0.11226
0.1097
0.105479
0.0999478
0.0934644
0.0863698
0.0789685
0.0715183
0.0642259
0.0572474
0.0506923
0.0446295
0.0390945
0.0340967
0.0296259
0.0256579
0.02216
0.019094
0.0164194
0.0140958
0.0120835
0.0103455
0.00884754
0.00755868
0.00645124
0.00550083
0.00468607
0.00398838
0.00339165
0.00288194
0.00244722
0.00207711
0.00176264
0.00149606
0.00127063
0.00108054
0.000920738
0.000786802
0.000674875
0.000581547
0.000503779
0.000438819
0.000384154
0.000337469
0.00029665
0.000259824
0.000225402
0.00019212
0.000159017
0.000125346
9.05421e-05
5.45633e-05
1.81639e-05
0.0243021
0.0724554
0.119327
0.163993
0.205412
0.242566
0.274436
0.300131
0.319012
0.33077
0.33547
0.333541
0.325716
0.312946
0.296296
0.276846
0.255618
0.233523
0.211325
0.189635
0.168912
0.149474
0.131519
0.115147
0.100378
0.0871795
0.0754748
0.0651641
0.0561323
0.0482582
0.0414203
0.0355013
0.0303909
0.0259875
0.0221995
0.0189453
0.0161528
0.0137591
0.0117095
0.00995663
0.00845947
0.00718269
0.00609577
0.00517235
0.00438964
0.00372791
0.00317004
0.00270116
0.00230832
0.00198018
0.00170673
0.00147904
0.00128901
0.00112923
0.000992864
0.000873652
0.000766036
0.000665321
0.000567792
0.000470643
0.000371623
0.000268601
0.000160575
5.26655e-05
0.0400497
0.119428
0.196757
0.270549
0.339079
0.400615
0.453406
0.495911
0.52701
0.546161
0.553477
0.549706
0.536127
0.514376
0.486272
0.453645
0.418209
0.381477
0.344709
0.308899
0.274785
0.242871
0.213464
0.186706
0.162616
0.141122
0.122091
0.105349
0.0907002
0.0779427
0.0668741
0.0573003
0.0490394
0.0419251
0.0358074
0.0305533
0.0260456
0.0221823
0.0188748
0.0160465
0.013631
0.0115715
0.00981844
0.00832946
0.00706772
0.00600136
0.00510273
0.00434784
0.00371579
0.00318827
0.00274915
0.00238402
0.00207979
0.00182444
0.00160679
0.0014166
0.00124472
0.00108346
0.00092674
0.000770109
0.000610192
0.000442965
0.000261531
8.30825e-05
0.0555806
0.1658
0.273321
0.376134
0.471832
0.557906
0.631781
0.691149
0.734319
0.760468
0.769771
0.763359
0.743143
0.711543
0.671215
0.624794
0.574719
0.52311
0.47171
0.421878
0.3746
0.330537
0.290069
0.253358
0.220397
0.191057
0.165133
0.142369
0.122485
0.105193
0.0902093
0.0772625
0.066101
0.0564952
0.0482393
0.0411515
0.0350724
0.0298634
0.0254046
0.0215923
0.0183372
0.0155621
0.0132008
0.0111957
0.00949732
0.0080626
0.00685428
0.00583997
0.00499148
0.00428418
0.00369633
0.00320851
0.00280306
0.00246362
0.00217493
0.00192286
0.00169478
0.00147999
0.00126996
0.00105847
0.00084184
0.000616289
0.000361094
0.000110776
0.0709959
0.211889
0.349607
0.481671
0.604983
0.716169
0.811678
0.88826
0.943508
0.97625
0.986742
0.976598
0.948501
0.905801
0.852108
0.790947
0.725521
0.65857
0.59231
0.528431
0.468136
0.412201
0.361045
0.314811
0.273436
0.236716
0.204354
0.176002
0.151287
0.129833
0.111271
0.0952532
0.0814593
0.0695976
0.0594091
0.0506659
0.0431693
0.0367473
0.0312513
0.0265531
0.0225423
0.019124
0.0162161
0.0137481
0.0116585
0.00989451
0.00840998
0.00716495
0.00612468
0.00525883
0.00454067
0.0039463
0.00345391
0.00304316
0.0026949
0.00239125
0.00211617
0.00185594
0.00159927
0.00133762
0.00106726
0.00078853
0.000460662
0.000137055
0.086338
0.257845
0.425931
0.587736
0.739459
0.876738
0.994829
1.08929
1.15678
1.19569
1.20639
1.19113
1.15355
1.09815
1.02963
0.952505
0.870803
0.787886
0.706423
0.628401
0.555197
0.487652
0.42618
0.370863
0.321551
0.277934
0.239608
0.20612
0.176997
0.151767
0.129979
0.111206
0.0950586
0.0811857
0.0692774
0.059063
0.0503079
0.0428096
0.0363938
0.0309104
0.0262305
0.022243
0.0188524
0.0159759
0.0135422
0.0114892
0.009763
0.00831693
0.00711037
0.00610796
0.00527859
0.00459445
0.00403008
0.00356152
0.00316592
0.00282175
0.00250959
0.00221273
0.00191683
0.00161017
0.00128874
0.000960469
0.000560734
0.000162566
0.101592
0.303651
0.502355
0.694588
0.875842
1.04061
1.18266
1.29601
1.37608
1.4207
1.43042
1.40833
1.35933
1.28927
1.20417
1.10965
1.01059
0.910976
0.813905
0.721618
0.635606
0.556726
0.48533
0.421395
0.364643
0.314633
0.270835
0.232677
0.199578
0.170972
0.146317
0.12511
0.106893
0.0912564
0.0778429
0.0663425
0.056488
0.0480502
0.040832
0.0346642
0.0294015
0.0249188
0.0211089
0.0178787
0.0151477
0.0128461
0.0109129
0.00929547
0.00794812
0.00683113
0.00590967
0.00515262
0.00453137
0.00401874
0.00358839
0.00321519
0.00287634
0.00255213
0.00222484
0.00187855
0.00150868
0.00113327
0.000661627
0.000187608
0.116686
0.349127
0.57869
0.802179
1.01439
1.2085
1.37638
1.51001
1.6032
1.65301
1.66031
1.62933
1.56656
1.47957
1.37589
1.26236
1.14475
1.02766
0.914566
0.807896
0.709206
0.6193
0.53841
0.466355
0.402689
0.346811
0.298045
0.255691
0.219058
0.187477
0.160318
0.137
0.116995
0.0998409
0.0851342
0.0725297
0.061732
0.0524884
0.0445825
0.0378284
0.032067
0.0271614
0.0229941
0.0194635
0.0164812
0.0139703
0.011864
0.0101043
0.00864107
0.00743093
0.00643599
0.00562245
0.00495913
0.00441606
0.00396363
0.0035731
0.00321822
0.00287622
0.00252563
0.00214515
0.00172932
0.00130811
0.000763525
0.000212314
0.131496
0.393938
0.654505
0.910157
1.15507
1.38084
1.577
1.7328
1.83985
1.89426
1.89738
1.85501
1.77574
1.66921
1.54472
1.41044
1.27305
1.1377
1.00818
0.887053
0.775864
0.675296
0.58539
0.505753
0.435727
0.374524
0.321306
0.275238
0.23551
0.201355
0.172053
0.146942
0.125429
0.106997
0.0912026
0.0776695
0.0660785
0.0561576
0.0476738
0.0404277
0.0342481
0.0289886
0.0245232
0.0207432
0.0175537
0.0148715
0.0126246
0.0107504
0.00919505
0.00791218
0.00686145
0.00600706
0.00531585
0.00475552
0.0042935
0.00389739
0.00353731
0.00318734
0.00282179
0.0024125
0.00195299
0.00148609
0.000866503
0.000236755
0.145847
0.4376
0.729125
1.01787
1.2975
1.55783
1.7854
1.96582
2.08772
2.14599
2.14278
2.08605
1.9871
1.85811
1.71041
1.55357
1.39516
1.2408
1.0945
0.958911
0.835474
0.724676
0.626293
0.539654
0.463852
0.397883
0.340736
0.291433
0.249048
0.212716
0.181625
0.155034
0.132283
0.112803
0.0961166
0.0818212
0.0695787
0.0591016
0.0501437
0.0424941
0.0359722
0.0304236
0.025716
0.0217348
0.0183796
0.0155621
0.0132054
0.0112429
0.00961785
0.00828133
0.00719132
0.00631063
0.00560478
0.00503972
0.00458015
0.00419009
0.00383581
0.00348798
0.00311611
0.00268336
0.00218219
0.0016684
0.000970688
0.000261098
0.159516
0.479487
0.801644
1.12436
1.44101
1.73943
2.00235
2.21056
2.34859
2.40977
2.39755
2.32292
2.20063
2.04596
1.87251
1.69129
1.51066
1.33662
1.1733
1.02331
0.887965
0.767449
0.66119
0.568178
0.48721
0.417046
0.356491
0.304426
0.259814
0.221691
0.189158
0.16139
0.137659
0.117351
0.0999561
0.0850536
0.0722915
0.0613709
0.0520355
0.044065
0.0372711
0.0314935
0.0265954
0.022458
0.0189761
0.0160568
0.013619
0.0115927
0.00991857
0.00854597
0.00743175
0.00653804
0.00582972
0.00527152
0.00482586
0.00445321
0.0041158
0.00378061
0.00341156
0.0029608
0.00241988
0.0018565
0.00107656
0.000285827
0.172243
0.518847
0.870936
1.22837
1.58459
1.92532
2.22857
2.46861
2.62433
2.68714
2.6626
2.56586
2.41608
2.23224
2.03043
1.82306
1.61913
1.42486
1.24434
1.08013
0.933304
0.803672
0.690205
0.59149
0.505988
0.432204
0.368759
0.314395
0.267969
0.228431
0.194793
0.166139
0.141675
0.120742
0.102809
0.0874414
0.0742806
0.0630203
0.0533961
0.0451806
0.0381793
0.0322275
0.0271861
0.0229338
0.0193614
0.0163715
0.0138791
0.0118116
0.0101072
0.00871435
0.00758947
0.00669462
0.00599473
0.00545397
0.00503286
0.00468854
0.0043791
0.00406755
0.00371121
0.00324826
0.00266959
0.00205241
0.00118536
0.000311999
0.183735
0.55483
0.935677
1.32831
1.72685
2.11489
2.46468
2.74173
2.91706
2.97971
2.93871
2.8149
2.63296
2.41623
2.18344
1.94825
1.72012
1.50519
1.30742
1.12925
0.971498
0.833447
0.71351
0.609802
0.520413
0.443582
0.377751
0.321534
0.273691
0.233098
0.198678
0.16942
0.144453
0.123084
0.104766
0.0890619
0.075612
0.0641062
0.0542741
0.0458827
0.0387324
0.0326556
0.0275137
0.0231843
0.0195546
0.0165227
0.0140002
0.0119117
0.010194
0.00879511
0.00767148
0.00678587
0.00610401
0.0055901
0.00520327
0.0048976
0.00462717
0.00435088
0.00401828
0.00354971
0.00293577
0.00225904
0.0012994
0.000341456
0.193684
0.586516
0.994379
1.42234
1.86603
2.30722
2.71127
3.03196
3.22916
3.28911
3.22648
3.0698
2.8505
2.59701
2.33071
2.06622
1.81319
1.57737
1.36239
1.17062
1.0026
0.856929
0.731321
0.623363
0.530744
0.451428
0.383698
0.326049
0.277163
0.235857
0.200973
0.171377
0.14612
0.124484
0.105919
0.0899926
0.0763513
0.0646848
0.0547179
0.0462133
0.0389662
0.032808
0.0276035
0.0232314
0.0195748
0.0165271
0.0139966
0.0119055
0.0101896
0.00879696
0.00768486
0.00681734
0.00616174
0.00568293
0.00533901
0.00508154
0.00486101
0.00463235
0.0043361
0.0038697
0.00322391
0.00248033
0.00142224
0.000376853
0.201782
0.612957
1.04544
1.5083
1.99991
2.50097
2.96887
3.34171
3.56342
3.617
3.52632
3.33005
3.06766
2.77349
2.47135
2.17633
1.89796
1.6412
1.40913
1.20421
1.0267
0.87432
0.743898
0.63246
0.537265
0.456006
0.38684
0.328155
0.278568
0.236877
0.201834
0.172157
0.146805
0.125053
0.10636
0.0903088
0.0765625
0.0648114
0.0547751
0.0462136
0.0389161
0.032714
0.0274799
0.0230962
0.0194409
0.0164013
0.0138827
0.0118052
0.0101042
0.00872849
0.00763658
0.00679446
0.00617204
0.00573539
0.00544182
0.00524111
0.00508108
0.0049133
0.00466813
0.0042136
0.00354077
0.00272141
0.00155839
0.000421377
0.207734
0.633223
1.08719
1.58383
2.12586
2.69431
3.23791
3.67394
3.92312
3.96497
3.83833
3.59488
3.28315
2.94442
2.6044
2.27791
1.97414
1.69661
1.44758
1.22999
1.04393
0.885876
0.751539
0.637405
0.540282
0.457592
0.387425
0.328067
0.278089
0.236318
0.20142
0.171909
0.146633
0.124894
0.106176
0.0900821
0.0763064
0.0645386
0.0544911
0.0459237
0.0386166
0.0324013
0.027166
0.0227992
0.019171
0.016161
0.0136722
0.0116228
0.00994782
0.00859806
0.0075334
0.00672244
0.00613885
0.00575032
0.00551329
0.00537666
0.00528721
0.00519446
0.00501788
0.00458773
0.00389442
0.00298841
0.00171256
0.000478074
0.211282
0.64646
1.11798
1.64635
2.24071
2.88479
3.51867
4.03233
4.31224
4.33448
4.16227
3.8632
3.49533
3.10843
2.72897
2.37037
2.04153
1.7436
1.47772
1.24798
1.05448
0.891906
0.754573
0.638538
0.540118
0.456463
0.385701
0.326001
0.275895
0.234333
0.19989
0.170782
0.145727
0.124109
0.105449
0.0893788
0.07564
0.0639165
0.0539088
0.045382
0.0381007
0.0318961
0.0266828
0.0223596
0.0187828
0.0158215
0.0133785
0.0113697
0.00973003
0.00841367
0.00738183
0.00660621
0.0060659
0.00573054
0.00555483
0.0054881
0.00547861
0.00547584
0.00538884
0.00499955
0.00429417
0.00328797
0.00188841
0.000548791
0.212222
0.651939
1.13628
1.69321
2.34082
3.06918
3.81114
4.42153
4.7356
4.72658
4.49744
4.13369
3.70228
3.26407
2.8442
2.45313
2.10006
1.78239
1.49954
1.25816
1.05857
0.892783
0.753353
0.636215
0.537109
0.452891
0.381914
0.32217
0.272145
0.231059
0.197399
0.168928
0.144202
0.122791
0.104257
0.0882588
0.0746161
0.0629922
0.0530675
0.044625
0.0374006
0.0312222
0.0260493
0.0217952
0.018293
0.0153971
0.0130141
0.0110567
0.0094597
0.00818288
0.00718805
0.00645028
0.00595666
0.00567888
0.00556785
0.00557491
0.00565381
0.00575649
0.00578418
0.005458
0.00475047
0.00362649
0.00208691
0.000632941
0.210418
0.649111
1.14073
1.72173
2.42207
3.24327
4.11482
4.84757
5.19918
5.14165
4.8426
4.40488
3.90168
3.40985
2.94942
2.5256
2.14982
1.81334
1.51306
1.26046
1.05647
0.888951
0.748239
0.630802
0.531602
0.447134
0.376309
0.316788
0.266975
0.226614
0.194104
0.166499
0.142164
0.121027
0.102674
0.086774
0.0732828
0.0618102
0.0520026
0.0436876
0.0365474
0.0304006
0.0252813
0.0211229
0.0177178
0.014901
0.0125907
0.0106941
0.00914495
0.00791284
0.00695794
0.0062587
0.0058143
0.00559833
0.00555379
0.00563617
0.00581071
0.00603425
0.00620631
0.00597379
0.00527473
0.00400898
0.00230482
0.000726414
0.205817
0.637655
1.13029
1.72938
2.47987
3.40162
4.42837
5.31827
5.71045
5.57881
5.19589
4.67534
4.09074
3.54433
3.04421
2.58716
2.1911
1.83712
1.51823
1.25475
1.04853
0.88094
0.739579
0.622674
0.523956
0.439421
0.369123
0.310071
0.260499
0.221094
0.190166
0.163656
0.139705
0.118896
0.100768
0.0849671
0.0716839
0.0604126
0.0507444
0.042603
0.0355724
0.0294491
0.0243917
0.0203583
0.017073
0.014345
0.0121192
0.0102915
0.00879302
0.00761025
0.00669718
0.00603497
0.00564155
0.00549215
0.00551432
0.00567049
0.00594675
0.00630551
0.00665619
0.00656004
0.00587946
0.00443765
0.00253365
0.000821094
0.198455
0.617505
1.10426
1.7139
2.50933
3.53738
4.74911
5.8439
6.27887
6.03515
5.55485
4.94395
4.26601
3.66617
3.12857
2.63699
2.22439
1.8547
1.51492
1.24075
1.03519
0.869394
0.727674
0.61221
0.514552
0.429937
0.36059
0.302248
0.252795
0.214558
0.185752
0.160569
0.136894
0.116466
0.0986055
0.0828686
0.0698598
0.0588413
0.0493165
0.0414035
0.0345075
0.0283818
0.0233895
0.0195167
0.0163744
0.0137394
0.0116098
0.00985817
0.00841007
0.00728143
0.0064113
0.0057819
0.00544066
0.00536407
0.00545145
0.00567597
0.00605916
0.00656503
0.00713216
0.00723291
0.00657859
0.00491036
0.00275957
0.000905403
0.188455
0.588873
1.06242
1.67352
2.50542
3.64201
5.07219
6.43804
6.91658
6.50456
5.91645
5.21037
4.42307
3.77432
3.20307
2.6739
2.25046
1.86751
1.50281
1.21797
1.01701
0.855096
0.712727
0.599796
0.503805
0.418796
0.350944
0.293567
0.243902
0.207028
0.181049
0.157425
0.133773
0.113799
0.0962552
0.080494
0.0678486
0.0571389
0.0477339
0.0401208
0.0333866
0.0272077
0.0222793
0.0186133
0.0156381
0.0130922
0.0110719
0.00940313
0.00800086
0.00693241
0.00610591
0.00550145
0.00521314
0.00521852
0.00536779
0.00564999
0.00614531
0.00680588
0.00762847
0.00801259
0.0073885
0.00541907
0.00296453
0.000966075
0.176022
0.552245
1.00506
1.60709
2.46321
3.70511
5.38947
7.11866
7.6393
6.97599
6.27744
5.47568
4.55597
3.86817
3.2692
2.69599
2.27044
1.87759
1.48122
1.18569
0.994778
0.839018
0.694774
0.585832
0.492182
0.40601
0.340428
0.284318
0.233801
0.198469
0.176272
0.154437
0.130338
0.110954
0.0937924
0.0778376
0.0656882
0.0553521
0.0459989
0.0387877
0.0322483
0.0259298
0.0210606
0.0176642
0.0148814
0.0124085
0.0105143
0.00893544
0.00756835
0.0065691
0.00578694
0.0051946
0.00495961
0.00506092
0.00526675
0.00558888
0.00620336
0.00701959
0.00813307
0.00892443
0.00832979
0.00594822
0.00312858
0.000991011
0.161434
0.508362
0.932994
1.51426
2.37831
3.71447
5.68788
7.9095
8.46761
7.43117
6.63485
5.74329
4.65647
3.94788
3.32964
2.70021
2.28592
1.88777
1.44902
1.14282
0.969521
0.822371
0.673583
0.570756
0.480242
0.391435
0.329307
0.27485
0.222406
0.188785
0.171677
0.151856
0.12652
0.107986
0.0913069
0.0748649
0.0634195
0.0535352
0.0440967
0.0374394
0.0311375
0.0245428
0.0197273
0.0166874
0.0141236
0.0116891
0.00994579
0.00846472
0.00711313
0.00619748
0.00546096
0.00486102
0.0046794
0.00489807
0.0051529
0.00548738
0.00623302
0.00719657
0.00862485
0.0100004
0.00942981
0.00647314
0.0032326
0.000972589
0.145021
0.458183
0.847546
1.39565
2.24725
3.6562
5.94717
8.8419
9.42857
7.84133
6.98698
6.02008
4.7128
4.01476
3.38879
2.68164
2.29917
1.9019
1.4043
1.08785
0.942669
0.806679
0.648511
0.555079
0.468679
0.374707
0.317888
0.265605
0.209536
0.177795
0.167585
0.149983
0.122162
0.104962
0.088913
0.0715004
0.0610912
0.0517555
0.0419876
0.0361161
0.0301092
0.0230305
0.0182665
0.0157045
0.0133865
0.0109294
0.0093754
0.00800175
0.00663249
0.00582396
0.00513565
0.00449886
0.00437016
0.00473861
0.00503232
0.00533773
0.00623658
0.00732707
0.00906995
0.0112812
0.0107261
0.00695823
0.00326086
0.000910415
0.127146
0.402831
0.750515
1.25294
2.06809
3.51534
6.13693
9.95695
10.558
8.16297
7.33487
6.31791
4.70796
4.07195
3.45336
2.63263
2.3134
1.92522
1.34409
1.0188
0.91616
0.793865
0.618323
0.539446
0.458384
0.355143
0.306555
0.257149
0.194892
0.165218
0.164399
0.149192
0.116978
0.101968
0.0867628
0.0676118
0.0587666
0.0500997
0.0395975
0.0348673
0.0292321
0.0213625
0.0166585
0.0147425
0.0126963
0.0101167
0.00881341
0.00755936
0.00611933
0.00545584
0.00482033
0.00410435
0.00402733
0.00459352
0.00491313
0.00512844
0.00622027
0.00740259
0.00941706
0.0128182
0.0122704
0.00735446
0.00320197
0.00081232
0.108189
0.343535
0.644078
1.08884
1.84092
3.27693
6.21258
11.3081
11.9032
8.33224
7.68451
6.65535
4.6174
4.1253
3.53313
2.54154
2.33324
1.96468
1.26397
0.933143
0.892601
0.786364
0.58095
0.524726
0.450529
0.331625
0.295813
0.250216
0.178019
0.150652
0.162636
0.149949
0.110509
0.09913
0.0850617
0.0629872
0.0565331
0.0486822
0.0368045
0.0337561
0.0285931
0.0194892
0.0148758
0.0138352
0.0120844
0.00922748
0.00827244
0.00715341
0.00556051
0.00510194
0.00452654
0.00367141
0.00364347
0.00447682
0.00480618
0.00484247
0.00619579
0.00741819
0.00959148
0.0146769
0.0141334
0.00759568
0.00304781
0.000692649
0.0885262
0.281561
0.530676
0.907083
1.56842
2.9278
6.11044
12.9644
13.5266
8.25799
8.04997
7.0598
4.40596
4.18461
3.64185
2.3912
2.36531
2.02937
1.1575
0.827821
0.875431
0.787251
0.533183
0.512137
0.446657
0.302437
0.286353
0.245752
0.158271
0.133553
0.162957
0.152846
0.102062
0.0966414
0.0840881
0.057306
0.054515
0.0476557
0.0334224
0.0328673
0.0283027
0.0173361
0.0128834
0.0130261
0.0115897
0.00822417
0.00776912
0.00680408
0.00493488
0.00477348
0.00426873
0.00319122
0.00320751
0.00440623
0.00472595
0.00445488
0.00618216
0.00737566
0.00948761
0.016941
0.0164087
0.00759309
0.00279024
0.00056761
0.0685153
0.218153
0.412872
0.712212
1.25627
2.45922
5.74146
15.0136
15.5104
7.81304
8.45755
7.56977
4.02407
4.26527
3.79828
2.15698
2.41902
2.13094
1.01565
0.699258
0.869097
0.800402
0.470306
0.503416
0.448799
0.265067
0.279138
0.244963
0.134754
0.113209
0.166195
0.158632
0.090636
0.0947965
0.0842142
0.0501031
0.0528903
0.0472223
0.029179
0.0323165
0.0285003
0.0147967
0.0106394
0.01237
0.0112599
0.00705015
0.00732617
0.00653739
0.00421072
0.00448524
0.00406499
0.00265172
0.00270382
0.004404
0.00469176
0.00392973
0.00620769
0.00728794
0.00895966
0.0197172
0.0192179
0.00722729
0.0024172
0.000448646
0.0484839
0.154466
0.293201
0.50932
0.913233
1.87063
4.98375
17.5669
17.9618
6.82373
8.95118
8.23735
3.40296
4.39048
4.0274
1.8044
2.5077
2.28408
0.826041
0.543484
0.87921
0.83069
0.385645
0.501039
0.459601
0.215971
0.275519
0.249363
0.106278
0.0887223
0.173396
0.168261
0.0748367
0.0940361
0.0859308
0.0407232
0.0519124
0.0476476
0.0236909
0.0322624
0.0293594
0.0117238
0.00809638
0.0119355
0.0111549
0.00562465
0.0069752
0.0063868
0.00334265
0.004257
0.00393766
0.0020372
0.00211126
0.00449762
0.00472933
0.00321634
0.006312
0.00718501
0.0078104
0.0231419
0.0227141
0.00633784
0.00191116
0.000336242
0.02872
0.0915233
0.174029
0.303694
0.550995
1.17455
3.67377
20.7623
21.0193
5.05768
9.59915
9.13071
2.44916
4.59388
4.36163
1.28638
2.64993
2.50694
0.572075
0.356327
0.912679
0.884206
0.270053
0.50849
0.482453
0.150288
0.277374
0.260812
0.071292
0.0589917
0.185844
0.182936
0.0527691
0.0950036
0.0898713
0.0282688
0.0519364
0.0492746
0.0164328
0.0329223
0.0310937
0.00791983
0.0052035
0.0118064
0.0113489
0.0038364
0.00676
0.00639508
0.00226802
0.00411537
0.00391399
0.00132782
0.00140205
0.00472061
0.00487276
0.00224476
0.00654799
0.00712134
0.00577762
0.0273888
0.0270855
0.00471052
0.00125471
0.000218101
0.00946392
0.0301711
0.0574185
0.100419
0.183333
0.402917
1.59634
24.77
24.8604
2.2098
10.5023
10.3365
1.03812
4.92292
4.84213
0.540087
2.87122
2.82146
0.232042
0.133719
0.977787
0.968533
0.111322
0.530593
0.521637
0.0615174
0.287282
0.281551
0.0278195
0.0226969
0.205094
0.204174
0.0219215
0.0986122
0.0968371
0.0115392
0.0534509
0.0525395
0.00670384
0.034591
0.0339606
0.00312598
0.00191057
0.0120829
0.011934
0.0015365
0.00674058
0.00661613
0.000902734
0.00409606
0.00402648
0.000499263
0.000540713
0.00511311
0.00516699
0.000920647
0.00698344
0.0071852
0.00251853
0.0326775
0.0325591
0.00206344
0.000449497
7.66893e-05
)
;

boundaryField
{
    left
    {
        type            calculated;
        value           uniform 0;
    }
    right
    {
        type            calculated;
        value           uniform 0;
    }
    interface
    {
        type            calculated;
        value           nonuniform List<scalar> 
64
(
0.00946392
0.0301711
0.0574185
0.100419
0.183333
0.402917
1.59634
24.77
24.8604
2.2098
10.5023
10.3365
1.03812
4.92292
4.84213
0.540087
2.87122
2.82146
0.232042
0.133719
0.977787
0.968533
0.111322
0.530593
0.521637
0.0615174
0.287282
0.281551
0.0278195
0.0226969
0.205094
0.204174
0.0219215
0.0986122
0.0968371
0.0115392
0.0534509
0.0525395
0.00670384
0.034591
0.0339606
0.00312598
0.00191057
0.0120829
0.011934
0.0015365
0.00674058
0.00661613
0.000902734
0.00409606
0.00402648
0.000499263
0.000540713
0.00511311
0.00516699
0.000920647
0.00698344
0.0071852
0.00251853
0.0326775
0.0325591
0.00206344
0.000449497
7.66893e-05
)
;
    }
    bottom
    {
        type            calculated;
        value           nonuniform List<scalar> 
64
(
0.00817819
0.0243815
0.0401488
0.0551621
0.0690725
0.0815458
0.0922445
0.100877
0.107234
0.111217
0.112845
0.11226
0.1097
0.105479
0.0999478
0.0934644
0.0863698
0.0789685
0.0715183
0.0642259
0.0572474
0.0506923
0.0446295
0.0390945
0.0340967
0.0296259
0.0256579
0.02216
0.019094
0.0164194
0.0140958
0.0120835
0.0103455
0.00884754
0.00755868
0.00645124
0.00550083
0.00468607
0.00398838
0.00339165
0.00288194
0.00244722
0.00207711
0.00176264
0.00149606
0.00127063
0.00108054
0.000920738
0.000786802
0.000674875
0.000581547
0.000503779
0.000438819
0.000384154
0.000337469
0.00029665
0.000259824
0.000225402
0.00019212
0.000159017
0.000125346
9.05421e-05
5.45633e-05
1.81639e-05
)
;
    }
    defaultFaces
    {
        type            empty;
    }
}


// ************************************************************************* //
