/*--------------------------------*- C++ -*----------------------------------*\
| =========                 |                                                 |
| \\      /  F ield         | OpenFOAM: The Open Source CFD Toolbox           |
|  \\    /   O peration     | Version:  5.x                                   |
|   \\  /    A nd           | Web:      www.OpenFOAM.org                      |
|    \\/     M anipulation  |                                                 |
\*---------------------------------------------------------------------------*/
FoamFile
{
    version     2.0;
    format      ascii;
    class       volScalarField;
    location    "7.1";
    object      T;
}
// * * * * * * * * * * * * * * * * * * * * * * * * * * * * * * * * * * * * * //

dimensions      [0 0 0 1 0 0 0];

internalField   nonuniform List<scalar> 
2048
(
9.85512
9.85581
9.85719
9.85923
9.86191
9.8652
9.86905
9.87339
9.87816
9.88327
9.88864
9.89419
9.89982
9.90546
9.91103
9.91648
9.92176
9.92681
9.93161
9.93615
9.9404
9.94437
9.94806
9.95148
9.95464
9.95754
9.96022
9.96267
9.96492
9.96699
9.96888
9.97062
9.9722
9.97365
9.97498
9.97618
9.97728
9.97828
9.97918
9.98
9.98073
9.98138
9.98197
9.98249
9.98296
9.98337
9.98373
9.98405
9.98433
9.98457
9.98478
9.98497
9.98513
9.98527
9.9854
9.9855
9.98559
9.98566
9.98573
9.98578
9.98582
9.98585
9.98587
9.98588
9.57113
9.57318
9.57726
9.58332
9.59128
9.60105
9.61247
9.62536
9.63952
9.6547
9.67065
9.68711
9.70383
9.72056
9.7371
9.75325
9.76887
9.78383
9.79805
9.81147
9.82405
9.83579
9.84669
9.85679
9.8661
9.87468
9.88257
9.88981
9.89646
9.90255
9.90814
9.91325
9.91793
9.92221
9.92612
9.92968
9.93293
9.93587
9.93853
9.94093
9.94309
9.94502
9.94675
9.94829
9.94966
9.95087
9.95193
9.95287
9.95369
9.95441
9.95504
9.95559
9.95607
9.95648
9.95684
9.95715
9.95741
9.95763
9.95781
9.95796
9.95808
9.95817
9.95823
9.95825
9.29801
9.30137
9.30807
9.31803
9.33113
9.34719
9.36599
9.38722
9.41054
9.43555
9.46181
9.48891
9.5164
9.54391
9.57106
9.59757
9.62317
9.64767
9.67094
9.69287
9.71342
9.73258
9.75037
9.76682
9.782
9.79597
9.80881
9.8206
9.83141
9.84132
9.85041
9.85873
9.86634
9.87331
9.87966
9.88546
9.89074
9.89552
9.89985
9.90375
9.90727
9.91041
9.91322
9.91572
9.91793
9.91989
9.92162
9.92314
9.92447
9.92564
9.92666
9.92755
9.92832
9.92899
9.92957
9.93007
9.93049
9.93085
9.93115
9.93139
9.93158
9.93172
9.93182
9.93186
9.0345
9.03915
9.0484
9.06217
9.08029
9.10254
9.1286
9.15805
9.19041
9.2251
9.26153
9.29909
9.33717
9.37521
9.41274
9.44931
9.4846
9.51833
9.55031
9.58042
9.6086
9.63484
9.65918
9.68167
9.7024
9.72148
9.739
9.75508
9.76982
9.78334
9.79573
9.80707
9.81746
9.82696
9.83563
9.84354
9.85073
9.85725
9.86316
9.86848
9.87326
9.87755
9.88137
9.88477
9.88778
9.89044
9.89278
9.89485
9.89665
9.89823
9.89961
9.90082
9.90186
9.90277
9.90355
9.90423
9.9048
9.90529
9.90569
9.90602
9.90628
9.90647
9.9066
9.90666
8.77958
8.78548
8.79724
8.81475
8.83782
8.86619
8.89945
8.93707
8.97843
9.02277
9.06931
9.11724
9.16579
9.21423
9.26193
9.30836
9.35307
9.39574
9.43613
9.4741
9.50958
9.54258
9.57314
9.60136
9.62734
9.65123
9.67316
9.69327
9.71171
9.72861
9.7441
9.75829
9.77128
9.78316
9.79401
9.8039
9.8129
9.82106
9.82844
9.83509
9.84107
9.84641
9.85118
9.85541
9.85916
9.86248
9.86539
9.86795
9.87019
9.87215
9.87386
9.87535
9.87665
9.87777
9.87874
9.87958
9.88029
9.88089
9.8814
9.8818
9.88213
9.88236
9.88252
9.8826
8.53239
8.53952
8.55373
8.57492
8.6029
8.63735
8.67779
8.72361
8.77398
8.82801
8.88468
8.94299
9.00196
9.06072
9.11847
9.17456
9.22848
9.27984
9.32835
9.37387
9.41634
9.45576
9.49222
9.52585
9.55678
9.58519
9.61125
9.63514
9.65703
9.6771
9.69548
9.71233
9.72776
9.74187
9.75476
9.76651
9.7772
9.7869
9.79566
9.80356
9.81064
9.81698
9.82262
9.82763
9.83206
9.83596
9.8394
9.84241
9.84505
9.84736
9.84937
9.85112
9.85264
9.85396
9.8551
9.85608
9.85692
9.85763
9.85822
9.8587
9.85908
9.85936
9.85954
9.85964
8.29224
8.30057
8.31718
8.342
8.37483
8.41534
8.463
8.51706
8.57656
8.64037
8.70726
8.77601
8.84542
8.91445
8.98215
9.04777
9.1107
9.1705
9.22687
9.27965
9.32878
9.37431
9.41635
9.45506
9.49064
9.52327
9.55319
9.5806
9.60571
9.62872
9.64981
9.66913
9.68683
9.70303
9.71783
9.73133
9.7436
9.75472
9.76478
9.77383
9.78195
9.7892
9.79565
9.80136
9.80641
9.81086
9.81477
9.8182
9.82119
9.8238
9.82608
9.82806
9.82979
9.83128
9.83257
9.83368
9.83463
9.83544
9.83611
9.83666
9.83709
9.83741
9.83762
9.83773
8.05857
8.06806
8.08701
8.11538
8.15301
8.19958
8.2545
8.31691
8.38568
8.45944
8.53671
8.616
8.69592
8.77521
8.8528
8.92782
8.99959
9.06761
9.13157
9.19131
9.24679
9.29811
9.34541
9.3889
9.42881
9.46539
9.49889
9.52957
9.55766
9.5834
9.60699
9.62861
9.64843
9.66657
9.68315
9.69827
9.71202
9.72448
9.73573
9.74586
9.75493
9.76302
9.77021
9.77657
9.78219
9.78713
9.79146
9.79525
9.79856
9.80145
9.80396
9.80615
9.80805
9.8097
9.81112
9.81235
9.8134
9.81429
9.81504
9.81565
9.81612
9.81648
9.81671
9.81683
7.83093
7.84153
7.86274
7.89458
7.93695
7.98956
8.0518
8.12271
8.20094
8.28487
8.37272
8.46272
8.55324
8.64282
8.73025
8.81456
8.89499
8.97102
9.0423
9.10871
9.17023
9.22701
9.27925
9.32721
9.37116
9.41139
9.44821
9.4819
9.51275
9.541
9.56691
9.59067
9.61245
9.6324
9.65064
9.66727
9.68239
9.69609
9.70846
9.71958
9.72952
9.73839
9.74625
9.7532
9.75932
9.76469
9.7694
9.77352
9.77711
9.78023
9.78295
9.78532
9.78737
9.78915
9.7907
9.79203
9.79317
9.79414
9.79495
9.79561
9.79613
9.79652
9.79677
9.7969
7.60896
7.62061
7.64399
7.67918
7.7262
7.78483
7.85447
7.93404
8.02198
8.11635
8.21503
8.31594
8.41717
8.51708
8.61432
8.70781
8.79675
8.88056
8.95892
9.03169
9.09895
9.16086
9.21772
9.26983
9.31753
9.36115
9.40102
9.43748
9.47085
9.50141
9.52945
9.55518
9.57879
9.60042
9.6202
9.63824
9.65464
9.66949
9.68289
9.69492
9.70567
9.71524
9.72371
9.73119
9.73776
9.74352
9.74856
9.75295
9.75678
9.76012
9.76301
9.76553
9.76772
9.76961
9.77125
9.77267
9.77389
9.77493
9.7758
9.77651
9.77707
9.77748
9.77776
9.7779
7.39238
7.40502
7.43043
7.46883
7.52038
7.58498
7.66209
7.75053
7.84847
7.95361
8.06342
8.17546
8.28755
8.39784
8.50485
8.60742
8.7047
8.79609
8.88125
8.96009
9.03275
9.09948
9.16064
9.21661
9.26776
9.31448
9.35715
9.39614
9.43181
9.4645
9.49449
9.52203
9.54733
9.57052
9.59173
9.61108
9.62867
9.64459
9.65894
9.67181
9.68331
9.69351
9.70253
9.71047
9.71744
9.72354
9.72886
9.7335
9.73753
9.74104
9.74409
9.74673
9.74903
9.75102
9.75275
9.75424
9.75553
9.75662
9.75754
9.7583
9.75889
9.75934
9.75963
9.75978
7.181
7.19453
7.22182
7.26324
7.31914
7.38964
7.47429
7.57182
7.68012
7.7964
7.91768
8.04111
8.1642
8.28492
8.40167
8.51322
8.61867
8.71741
8.80911
8.89371
8.97145
9.04267
9.10782
9.16733
9.22166
9.27123
9.31645
9.35774
9.3955
9.4301
9.46188
9.4911
9.51795
9.5426
9.56515
9.58572
9.6044
9.62131
9.63654
9.65019
9.66235
9.67314
9.68264
9.691
9.69831
9.70469
9.71026
9.7151
9.71931
9.72296
9.72613
9.72887
9.73126
9.73333
9.73513
9.73669
9.73803
9.73918
9.74015
9.74094
9.74157
9.74204
9.74235
9.7425
6.97469
6.989
7.01796
7.06215
7.12219
7.19847
7.29072
7.39761
7.51666
7.64453
7.77765
7.91273
8.04698
8.17816
8.3046
8.42502
8.53848
8.64435
8.74231
8.83237
8.91484
8.99023
9.05905
9.12182
9.17905
9.23121
9.27874
9.32211
9.36175
9.39809
9.43149
9.46225
9.49055
9.51655
9.54034
9.56204
9.58175
9.59957
9.61561
9.62997
9.64275
9.65405
9.66399
9.6727
9.6803
9.68693
9.6927
9.69771
9.70205
9.70582
9.70908
9.71191
9.71437
9.7165
9.71836
9.71998
9.72137
9.72256
9.72357
9.72439
9.72505
9.72554
9.72587
9.72603
6.77334
6.78832
6.81872
6.86537
6.92926
7.01115
7.11103
7.22758
7.35786
7.49781
7.64319
7.79021
7.93575
8.07742
8.21349
8.34264
8.46394
8.57673
8.68068
8.77585
8.86272
8.94193
9.01412
9.07987
9.13975
9.19425
9.24387
9.2891
9.33042
9.36831
9.40318
9.43535
9.465
9.49226
9.51721
9.53997
9.56062
9.57929
9.59608
9.61109
9.62442
9.63618
9.6465
9.65551
9.66336
9.67019
9.67612
9.68126
9.68572
9.68957
9.69291
9.6958
9.69831
9.70049
9.7024
9.70406
9.70549
9.70672
9.70776
9.70862
9.70931
9.70982
9.71016
9.71033
6.57694
6.59242
6.62398
6.67275
6.74012
6.82736
6.93489
7.06143
7.20351
7.3561
7.51418
7.67344
7.83038
7.98253
8.12815
8.2659
8.39486
8.51436
8.624
8.72395
8.81486
8.89757
8.97281
9.04127
9.10355
9.16017
9.21165
9.25854
9.30134
9.34061
9.37681
9.41029
9.44119
9.46963
9.49567
9.5194
9.54094
9.56039
9.57786
9.59346
9.6073
9.61947
9.63011
9.63938
9.64743
9.65442
9.66047
9.66572
9.67025
9.67417
9.67756
9.68049
9.68304
9.68526
9.6872
9.68889
9.69036
9.69163
9.6927
9.69359
9.6943
9.69483
9.69518
9.69536
6.38546
6.40128
6.4337
6.48414
6.55455
6.64682
6.76197
6.89887
7.05342
7.2193
7.39054
7.56232
7.73076
7.89334
8.0484
8.1946
8.33104
8.45704
8.57211
8.67646
8.77104
8.85691
8.93492
9.00583
9.07028
9.1288
9.18194
9.23028
9.27438
9.31484
9.35224
9.38693
9.41901
9.44855
9.47561
9.50026
9.5226
9.54278
9.56088
9.57703
9.59133
9.60386
9.61477
9.62424
9.63244
9.63955
9.64571
9.65102
9.65562
9.65958
9.66299
9.66595
9.66852
9.67076
9.67272
9.67444
9.67594
9.67724
9.67834
9.67926
9.67999
9.68054
9.6809
9.68108
6.19893
6.21492
6.24784
6.29948
6.37237
6.46922
6.5919
6.73961
6.90744
7.08732
7.2722
7.45678
7.63676
7.80967
7.97406
8.12852
8.27226
8.4046
8.52479
8.63315
8.73101
8.81973
8.90023
8.97333
9.03974
9.09996
9.15456
9.20417
9.24938
9.29087
9.32934
9.36516
9.39835
9.42894
9.45696
9.48245
9.50555
9.52638
9.54507
9.56172
9.57643
9.58929
9.60042
9.61004
9.61836
9.62555
9.63177
9.63713
9.64176
9.64574
9.64917
9.65213
9.6547
9.65695
9.65894
9.66068
9.6622
9.66353
9.66465
9.66559
9.66635
9.66691
9.66729
9.66747
6.0174
6.03336
6.0664
6.11868
6.19341
6.29429
6.42431
6.58334
6.76547
6.96012
7.15909
7.35676
7.54827
7.73135
7.90493
8.06746
8.21831
8.35686
8.48189
8.59382
8.69454
8.78581
8.86851
8.94357
9.01177
9.07349
9.12937
9.18009
9.22621
9.26855
9.30796
9.34486
9.37912
9.41069
9.43962
9.46591
9.48968
9.51114
9.53035
9.54746
9.56256
9.57569
9.58699
9.59671
9.60511
9.61236
9.61861
9.624
9.62863
9.63261
9.63604
9.63899
9.64156
9.64381
9.6458
9.64756
9.64911
9.65045
9.6516
9.65257
9.65334
9.65393
9.65431
9.6545
5.84092
5.85666
5.88941
5.94174
6.01755
6.12174
6.25882
6.42972
6.62744
6.8377
7.05116
7.26223
7.46517
7.65818
7.84082
8.01118
8.16895
8.31365
8.44323
8.55824
8.66138
8.75491
8.83957
8.91636
8.98619
9.04924
9.10621
9.15788
9.20474
9.24773
9.28797
9.32593
9.36121
9.39371
9.42352
9.45053
9.47493
9.49696
9.51666
9.53419
9.54966
9.56302
9.57443
9.58422
9.59265
9.59992
9.60618
9.61158
9.6162
9.62017
9.62357
9.6265
9.62904
9.63129
9.63329
9.63506
9.63662
9.63799
9.63916
9.64015
9.64094
9.64154
9.64194
9.64213
5.66955
5.68487
5.71693
5.76865
5.84469
5.95129
6.09497
6.27838
6.49338
6.7201
6.94835
7.17318
7.38735
7.58992
7.78155
7.95945
8.1239
8.27483
8.40867
8.52618
8.63126
8.72683
8.8132
8.89149
8.96285
9.02706
9.08494
9.13745
9.18485
9.22827
9.26923
9.30827
9.34454
9.37793
9.40859
9.43627
9.46123
9.4838
9.50393
9.52184
9.53767
9.55123
9.5627
9.57249
9.58094
9.5882
9.59444
9.59983
9.60443
9.60836
9.61173
9.61462
9.61713
9.61935
9.62136
9.62314
9.62471
9.6261
9.62729
9.6283
9.62912
9.62974
9.63014
9.63033
5.50336
5.51807
5.54902
5.59945
5.67477
5.7827
5.93227
6.12889
6.3634
6.60742
6.85056
7.08964
7.31469
7.5263
7.72695
7.912
8.08287
8.2403
8.37809
8.4974
8.60389
8.70138
8.78919
8.86877
8.94161
9.00681
9.06541
9.11868
9.16643
9.21005
9.25161
9.2918
9.32904
9.36325
9.39476
9.42304
9.44848
9.47158
9.4921
9.51035
9.52654
9.54028
9.55174
9.56148
9.56992
9.57714
9.58335
9.58871
9.59327
9.59715
9.60048
9.60332
9.60578
9.60798
9.60999
9.61177
9.61336
9.61476
9.61597
9.617
9.61785
9.61848
9.61889
9.61908
5.34241
5.35632
5.38576
5.43422
5.50777
5.61572
5.77019
5.9807
6.2378
6.49979
6.7576
7.01169
7.24707
7.46698
7.67689
7.8686
8.0455
8.20999
8.35141
8.47166
8.57896
8.67838
8.76738
8.84796
8.92235
8.98836
9.04747
9.1015
9.14938
9.1929
9.23495
9.27646
9.31464
9.34958
9.38199
9.41079
9.43661
9.46025
9.4811
9.49964
9.51625
9.53012
9.54149
9.55113
9.55955
9.56672
9.57285
9.5782
9.5827
9.58652
9.5898
9.59257
9.59496
9.59713
9.59915
9.60094
9.60253
9.60395
9.60518
9.60622
9.6071
9.60775
9.60816
9.60835
5.18674
5.19968
5.22723
5.27304
5.34373
5.45016
5.6081
5.83309
6.11707
6.3974
6.66917
6.93952
7.18436
7.41152
7.63133
7.82897
8.01132
8.18392
8.32857
8.44868
8.55612
8.6577
8.74759
8.82885
8.905
8.9716
9.03096
9.08585
9.13364
9.17669
9.21908
9.26221
9.30129
9.33684
9.37023
9.39945
9.42554
9.44977
9.47088
9.48965
9.50675
9.52072
9.53192
9.54139
9.54979
9.55688
9.56292
9.56825
9.57268
9.57641
9.57964
9.58234
9.58465
9.58678
9.58881
9.5906
9.59219
9.59364
9.59488
9.59594
9.59686
9.59752
9.59793
9.59812
5.03637
5.04821
5.07352
5.11603
5.18273
5.28588
5.44536
5.68513
6.00205
6.30047
6.58478
6.87345
7.12644
7.35933
7.59032
7.79284
7.97978
8.16222
8.30956
8.42817
8.53496
8.63928
8.72966
8.81117
8.8895
8.9564
9.01569
9.07171
9.11913
9.16127
9.20383
9.24905
9.28892
9.3249
9.35947
9.38897
9.41518
9.4401
9.46138
9.48029
9.49803
9.51206
9.52297
9.5322
9.54062
9.54759
9.55351
9.55884
9.56318
9.56681
9.57
9.57261
9.57481
9.57689
9.57895
9.58074
9.58232
9.58381
9.58505
9.58613
9.58709
9.58777
9.58817
9.58836
4.89133
4.90193
4.92472
4.96333
5.02491
5.12284
5.28124
5.53547
5.89401
6.20927
6.50361
6.81405
7.07317
7.30962
7.55411
7.75994
7.95008
8.14519
8.29442
8.40981
8.51498
8.62314
8.71346
8.7946
8.8759
8.94267
9.00144
9.05909
9.10582
9.14648
9.18896
9.23703
9.27751
9.31363
9.34972
9.37929
9.4054
9.43125
9.45254
9.47147
9.49009
9.5041
9.51458
9.5235
9.532
9.53882
9.54458
9.54994
9.55418
9.55767
9.56084
9.56334
9.56542
9.56744
9.56956
9.57133
9.5729
9.57443
9.57567
9.57675
9.57778
9.57847
9.57886
9.57904
4.75161
4.76088
4.78089
4.81509
4.87049
4.96108
5.11503
5.38228
5.79488
6.12409
6.42444
6.76221
7.02443
7.26132
7.52322
7.72999
7.92121
8.13334
8.28322
8.39324
8.49558
8.60944
8.69884
8.77873
8.8643
8.93032
8.98791
9.04808
9.09367
9.13216
9.17421
9.22628
9.26702
9.30287
9.34102
9.37037
9.39607
9.42323
9.44432
9.46307
9.48294
9.49684
9.50672
9.51522
9.52391
9.53054
9.53608
9.54155
9.54564
9.54897
9.55214
9.55452
9.55645
9.55839
9.56061
9.56236
9.56389
9.56549
9.56672
9.56779
9.56891
9.56961
9.56999
9.57015
4.61718
4.62505
4.6421
4.67145
4.7197
4.8008
4.94608
5.22294
5.70746
6.04518
6.34543
6.71931
6.98005
7.21291
7.49856
7.70273
7.89175
8.12751
8.27603
8.37808
8.47602
8.59849
8.68572
8.76306
8.85493
8.91925
8.97475
9.03885
9.08269
9.11815
9.15921
9.21699
9.25742
9.29236
9.33349
9.36217
9.38703
9.4161
9.43666
9.45493
9.47663
9.49025
9.49932
9.50729
9.51637
9.52271
9.52796
9.53364
9.53754
9.54066
9.5439
9.54612
9.54787
9.54971
9.5521
9.5538
9.55527
9.55697
9.55817
9.55923
9.56046
9.56117
9.56152
9.56166
4.48799
4.49441
4.50838
4.53258
4.57285
4.64233
4.77387
5.05377
5.63573
5.97276
6.26392
6.68744
6.93987
7.16236
7.48157
7.67789
7.85979
8.12899
8.27291
8.36391
8.45533
8.59087
8.67396
8.74691
8.8482
8.90937
8.96148
9.03165
9.07286
9.1043
9.14352
9.20952
9.24868
9.28182
9.32729
9.35464
9.37804
9.40997
9.42952
9.44687
9.47125
9.48432
9.49233
9.49962
9.50938
9.51532
9.52015
9.52622
9.52986
9.53271
9.5361
9.53813
9.53965
9.54137
9.54401
9.54563
9.54701
9.54887
9.55001
9.55102
9.55243
9.55312
9.55343
9.55356
4.36397
4.36894
4.37975
4.39859
4.43027
4.48621
4.59823
4.86967
5.58525
5.90689
6.17618
6.66961
6.90367
7.10686
7.47441
7.6552
7.82278
8.13966
8.27385
8.35033
8.43228
8.58747
8.66346
8.72936
8.84473
8.9006
8.94745
9.02691
9.06419
9.09049
9.12654
9.20435
9.24078
9.27083
9.3227
9.34772
9.36881
9.40502
9.42286
9.43865
9.46694
9.47902
9.4857
9.49209
9.50298
9.50833
9.5126
9.51931
9.52258
9.52507
9.52873
9.53053
9.53178
9.53332
9.53635
9.53783
9.53907
9.54118
9.54222
9.54314
9.5448
9.54546
9.54572
9.54582
4.24505
4.24855
4.25621
4.26959
4.29228
4.33313
4.41949
4.6636
5.5636
5.84745
6.07713
6.67009
6.87113
7.04269
7.48018
7.63439
7.7773
8.16222
8.27864
8.33697
8.40528
8.58957
8.65411
8.70923
8.84544
8.89282
8.93182
9.02523
9.05664
9.07661
9.10747
9.20221
9.23364
9.25885
9.32013
9.34138
9.35897
9.40152
9.41663
9.42994
9.46391
9.47432
9.47938
9.4846
9.49723
9.50172
9.50522
9.51293
9.51566
9.51768
9.52182
9.5233
9.52424
9.52552
9.52914
9.53039
9.53143
9.5339
9.53478
9.53555
9.53758
9.53815
9.53835
9.53843
4.1311
4.13318
4.13771
4.14565
4.1592
4.18393
4.23881
4.42599
5.581
5.79395
5.95995
6.69479
6.84184
6.96487
7.50322
7.61519
7.71885
8.20039
8.28682
8.32358
8.3723
8.59898
8.64575
8.68497
8.85161
8.88591
8.91352
9.02745
9.05012
9.06268
9.08529
9.20408
9.22721
9.24515
9.32014
9.33554
9.34801
9.39988
9.41079
9.42033
9.46248
9.47016
9.47333
9.47697
9.49224
9.49545
9.49789
9.50714
9.50909
9.51048
9.51538
9.51642
9.51701
9.51793
9.52238
9.5233
9.52403
9.52703
9.52766
9.52822
9.53076
9.53119
9.53132
9.53136
4.02203
4.02271
4.0242
4.02682
4.0313
4.03955
4.05856
4.14406
5.65089
5.74544
5.81574
6.75163
6.81519
6.86698
7.54935
7.59731
7.64158
8.25923
8.29744
8.31011
8.3307
8.61815
8.63819
8.65457
8.86499
8.87967
8.89114
9.03474
9.04446
9.04878
9.05864
9.21127
9.22135
9.22884
9.32352
9.33012
9.33531
9.40063
9.40527
9.4093
9.46306
9.46643
9.46752
9.46902
9.48815
9.48951
9.49051
9.50202
9.50285
9.5034
9.50943
9.50987
9.51007
9.51046
9.51613
9.51652
9.51682
9.5206
9.52087
9.52111
9.52436
9.52455
9.52459
9.52461
)
;

boundaryField
{
    left
    {
        type            zeroGradient;
    }
    right
    {
        type            zeroGradient;
    }
    interface
    {
        type            fixedValue;
        value           nonuniform List<scalar> 
64
(
3.96869
3.96869
3.96869
3.96869
3.96869
3.96869
3.96869
3.96869
5.72237
5.72237
5.72237
6.80247
6.80247
6.80247
7.58866
7.58866
7.58866
8.30331
8.30331
8.30331
8.30331
8.63459
8.63459
8.63459
8.8767
8.8767
8.8767
9.04184
9.04184
9.04184
9.04184
9.21856
9.21856
9.21856
9.32751
9.32751
9.32751
9.4026
9.4026
9.4026
9.46467
9.46467
9.46467
9.46467
9.48662
9.48662
9.48662
9.4998
9.4998
9.4998
9.50667
9.50667
9.50667
9.50667
9.51321
9.51321
9.51321
9.51755
9.51755
9.51755
9.52131
9.52131
9.52131
9.52131
)
;
    }
    bottom
    {
        type            fixedValue;
        value           uniform 10;
    }
    defaultFaces
    {
        type            empty;
    }
}


// ************************************************************************* //
