/*--------------------------------*- C++ -*----------------------------------*\
| =========                 |                                                 |
| \\      /  F ield         | OpenFOAM: The Open Source CFD Toolbox           |
|  \\    /   O peration     | Version:  5.x                                   |
|   \\  /    A nd           | Web:      www.OpenFOAM.org                      |
|    \\/     M anipulation  |                                                 |
\*---------------------------------------------------------------------------*/
FoamFile
{
    version     2.0;
    format      ascii;
    class       volScalarField;
    location    "3.3";
    object      gradTy;
}
// * * * * * * * * * * * * * * * * * * * * * * * * * * * * * * * * * * * * * //

dimensions      [0 -1 0 1 0 0 0];

internalField   nonuniform List<scalar> 
2048
(
-20.9224
-20.832
-20.652
-20.3849
-20.034
-19.6043
-19.1025
-18.5368
-17.9169
-17.2536
-16.5584
-15.8432
-15.1193
-14.3973
-13.6867
-12.9957
-12.331
-11.6975
-11.0991
-10.5381
-10.0155
-9.53154
-9.08549
-8.67603
-8.3014
-7.95953
-7.64817
-7.36499
-7.10768
-6.87402
-6.66189
-6.46932
-6.29454
-6.13592
-5.99202
-5.86154
-5.74332
-5.63633
-5.53961
-5.45229
-5.37358
-5.30274
-5.23907
-5.18192
-5.13069
-5.08481
-5.04374
-5.007
-4.97415
-4.94479
-4.91856
-4.89514
-4.87425
-4.85567
-4.83919
-4.82466
-4.81195
-4.80096
-4.79163
-4.78391
-4.77775
-4.77315
-4.77009
-4.76856
-20.9955
-20.9042
-20.7225
-20.4525
-20.0976
-19.6626
-19.1541
-18.5806
-17.9518
-17.2792
-16.5745
-15.8501
-15.1175
-14.3878
-13.6707
-12.9743
-12.3054
-11.669
-11.0687
-10.5067
-9.984
-9.50058
-9.05558
-8.64755
-8.27459
-7.93453
-7.62503
-7.34371
-7.08821
-6.85625
-6.64569
-6.45457
-6.28108
-6.12363
-5.98077
-5.85123
-5.73385
-5.62762
-5.53159
-5.44492
-5.36681
-5.29652
-5.23337
-5.17672
-5.12594
-5.08048
-5.03981
-5.00343
-4.9709
-4.94183
-4.91585
-4.89265
-4.87195
-4.85353
-4.83718
-4.82275
-4.81011
-4.79919
-4.78989
-4.78219
-4.77606
-4.77146
-4.76841
-4.76688
-21.1344
-21.0416
-20.8566
-20.5814
-20.2189
-19.7737
-19.2526
-18.664
-18.0184
-17.3277
-16.6048
-15.8626
-15.1135
-14.3692
-13.6395
-12.9329
-12.2561
-11.6141
-11.0103
-10.4467
-9.92389
-9.44162
-8.99873
-8.59347
-8.22374
-7.88717
-7.58126
-7.3035
-7.05143
-6.82271
-6.61515
-6.42675
-6.25572
-6.10047
-5.95957
-5.83178
-5.71599
-5.61119
-5.51647
-5.431
-5.35401
-5.28478
-5.22262
-5.16689
-5.11699
-5.07233
-5.03239
-4.99669
-4.96478
-4.93625
-4.91075
-4.88797
-4.86763
-4.8495
-4.83339
-4.81915
-4.80666
-4.79583
-4.78661
-4.77896
-4.77285
-4.76828
-4.76522
-4.7637
-21.3314
-21.2365
-21.0472
-20.7649
-20.3919
-19.9325
-19.3933
-18.7831
-18.113
-17.3963
-16.6469
-15.8791
-15.1064
-14.341
-13.5935
-12.8725
-12.1847
-11.535
-10.9265
-10.3608
-9.83816
-9.35776
-8.91805
-8.51691
-8.1519
-7.82037
-7.51962
-7.24696
-6.99979
-6.77568
-6.57236
-6.3878
-6.22022
-6.06804
-5.92988
-5.80454
-5.69095
-5.58814
-5.49525
-5.41147
-5.33606
-5.2683
-5.20753
-5.15311
-5.10442
-5.0609
-5.02201
-4.98726
-4.9562
-4.92844
-4.90362
-4.88142
-4.86158
-4.84387
-4.82809
-4.81411
-4.80182
-4.79114
-4.78201
-4.77442
-4.76835
-4.76379
-4.76075
-4.75922
-21.5798
-21.4826
-21.2884
-20.9975
-20.6118
-20.1348
-19.5726
-18.9346
-18.233
-17.4825
-16.6988
-15.8979
-15.0948
-14.3027
-13.5326
-12.7935
-12.0922
-11.4331
-10.8191
-10.2513
-9.72922
-9.2516
-8.81626
-8.4206
-8.06175
-7.73675
-7.44263
-7.17648
-6.93554
-6.71725
-6.51926
-6.33952
-6.17623
-6.02785
-5.89308
-5.77075
-5.65986
-5.55951
-5.46887
-5.38718
-5.31371
-5.24779
-5.18875
-5.13596
-5.0888
-5.0467
-5.00911
-4.97555
-4.94557
-4.91877
-4.8948
-4.87333
-4.85411
-4.83691
-4.82154
-4.80788
-4.79583
-4.78531
-4.7763
-4.76877
-4.76274
-4.75819
-4.75516
-4.75363
-21.8735
-21.7741
-21.5747
-21.2749
-20.8749
-20.3773
-19.7879
-19.1162
-18.376
-17.5839
-16.7583
-15.9172
-15.0773
-14.2531
-13.4564
-12.6961
-11.9791
-11.3095
-10.6896
-10.1199
-9.59917
-9.12541
-8.69574
-8.30696
-7.95573
-7.63868
-7.35256
-7.09422
-6.86073
-6.64935
-6.45765
-6.28354
-6.12524
-5.98126
-5.85038
-5.73152
-5.62375
-5.52622
-5.43817
-5.35889
-5.28768
-5.22389
-5.16688
-5.11599
-5.07063
-5.03019
-4.99414
-4.96198
-4.93326
-4.90758
-4.88459
-4.86398
-4.84548
-4.82887
-4.81398
-4.80068
-4.78889
-4.77855
-4.76965
-4.76219
-4.75618
-4.75165
-4.74862
-4.74709
-22.2068
-22.1055
-21.9016
-21.5929
-21.178
-20.6578
-20.0371
-19.326
-18.54
-17.6986
-16.8232
-15.9348
-15.0522
-14.1912
-13.364
-12.5801
-11.8457
-11.1649
-10.5391
-9.96806
-9.44979
-8.98122
-8.55867
-8.17823
-7.83602
-7.5283
-7.25149
-7.00219
-6.77724
-6.57375
-6.38918
-6.22138
-6.06863
-5.92952
-5.80292
-5.68787
-5.58352
-5.4891
-5.40391
-5.32728
-5.25858
-5.19717
-5.14243
-5.0937
-5.05036
-5.0118
-4.97748
-4.94689
-4.91958
-4.89516
-4.87328
-4.85363
-4.83593
-4.81998
-4.80561
-4.7927
-4.78119
-4.77103
-4.76224
-4.75484
-4.74884
-4.74431
-4.74127
-4.73973
-22.5746
-22.4721
-22.2647
-21.9483
-21.5187
-20.9744
-20.3189
-19.5627
-18.7235
-17.8246
-16.8916
-15.9489
-15.0178
-14.1154
-13.2548
-12.445
-11.6923
-10.9998
-10.3686
-9.79723
-9.28275
-8.82091
-8.40702
-8.03643
-7.70467
-7.40759
-7.14131
-6.90217
-6.68678
-6.49207
-6.31534
-6.15443
-6.00766
-5.87375
-5.75171
-5.6407
-5.53999
-5.44888
-5.36674
-5.29296
-5.22696
-5.16814
-5.11588
-5.06951
-5.02839
-4.99191
-4.95948
-4.9306
-4.90484
-4.88179
-4.86112
-4.84251
-4.82569
-4.81045
-4.79663
-4.78413
-4.77289
-4.76291
-4.75422
-4.74684
-4.74085
-4.7363
-4.73323
-4.73169
-22.9716
-22.8691
-22.6602
-22.3381
-21.8951
-21.3263
-20.6329
-19.8256
-18.9252
-17.9602
-16.9612
-15.9572
-14.9721
-14.0245
-13.1278
-12.2906
-11.5187
-10.8148
-10.1788
-9.6086
-9.09959
-8.64622
-8.24269
-7.88346
-7.56353
-7.27834
-7.02373
-6.7958
-6.59092
-6.40578
-6.23751
-6.08392
-5.94343
-5.81493
-5.69762
-5.59081
-5.49388
-5.40622
-5.32727
-5.25647
-5.19332
-5.13724
-5.08763
-5.04382
-5.0051
-4.97084
-4.94044
-4.9134
-4.88929
-4.86771
-4.84833
-4.83083
-4.81494
-4.80045
-4.78721
-4.77511
-4.76415
-4.75433
-4.74571
-4.73834
-4.73232
-4.72773
-4.72463
-4.72307
-23.3926
-23.2917
-23.0842
-22.7596
-22.3059
-21.713
-20.979
-20.1144
-19.1443
-18.1035
-17.0299
-15.9573
-14.9132
-13.9171
-12.9821
-12.1166
-11.3253
-10.6102
-9.97077
-9.40334
-8.90179
-8.45886
-8.06745
-7.72112
-7.41432
-7.14218
-6.90031
-6.68457
-6.49108
-6.31622
-6.15694
-6.01099
-5.87695
-5.75396
-5.64144
-5.5389
-5.44582
-5.36169
-5.286
-5.21827
-5.15806
-5.10486
-5.05806
-5.01696
-4.9808
-4.9489
-4.92065
-4.89555
-4.87317
-4.85313
-4.83511
-4.81878
-4.80388
-4.79016
-4.7775
-4.76581
-4.7551
-4.74542
-4.73683
-4.72944
-4.72336
-4.71871
-4.71556
-4.71397
-23.8326
-23.7353
-23.5328
-23.2105
-22.75
-22.1349
-21.3581
-20.4296
-19.3797
-18.2527
-17.0951
-15.947
-14.8391
-13.7917
-12.8171
-11.9226
-11.112
-10.3866
-9.74507
-9.18256
-8.69082
-8.26051
-7.88304
-7.5511
-7.25864
-7.00061
-6.77244
-6.5698
-6.38852
-6.22464
-6.07478
-5.93665
-5.80909
-5.69158
-5.58383
-5.48556
-5.39636
-5.31579
-5.24339
-5.17877
-5.12155
-5.07132
-5.02748
-4.98925
-4.95579
-4.92637
-4.90036
-4.87726
-4.85668
-4.83824
-4.82163
-4.80653
-4.79264
-4.77973
-4.76764
-4.75634
-4.74586
-4.73627
-4.72769
-4.72024
-4.71406
-4.70932
-4.7061
-4.70449
-24.2863
-24.1951
-24.0024
-23.6882
-23.2269
-22.5929
-21.7718
-20.772
-19.6309
-18.4057
-17.1542
-15.9236
-14.7478
-13.6471
-12.6321
-11.7087
-10.8792
-10.1442
-9.50244
-8.94741
-8.46819
-8.05281
-7.69114
-7.37501
-7.09798
-6.85497
-6.64137
-6.45265
-6.28439
-6.13214
-5.99206
-5.86181
-5.74062
-5.62846
-5.52536
-5.4313
-5.34598
-5.26895
-5.19983
-5.1383
-5.08409
-5.0369
-4.99615
-4.96094
-4.93032
-4.90348
-4.87978
-4.85874
-4.83999
-4.82319
-4.80804
-4.79421
-4.78138
-4.76928
-4.75776
-4.74681
-4.73653
-4.727
-4.71837
-4.71081
-4.7045
-4.69963
-4.69633
-4.69468
-24.7483
-24.6663
-24.4889
-24.1906
-23.7362
-23.0885
-22.2224
-21.1429
-19.897
-18.5601
-17.2043
-15.8843
-14.6373
-13.4823
-12.427
-11.475
-10.6272
-9.88365
-9.24351
-8.699
-8.23542
-7.83746
-7.49342
-7.19439
-6.93368
-6.70647
-6.50819
-6.33415
-6.1797
-6.03976
-5.90976
-5.78728
-5.67221
-5.56513
-5.46649
-5.37655
-5.29506
-5.22155
-5.15567
-5.09718
-5.04593
-5.00184
-4.96432
-4.93229
-4.90462
-4.88045
-4.85911
-4.84015
-4.82325
-4.80813
-4.79446
-4.78194
-4.77021
-4.75893
-4.74795
-4.73733
-4.72719
-4.71768
-4.70897
-4.70125
-4.69474
-4.68971
-4.68632
-4.68463
-25.2135
-25.1438
-24.9884
-24.7151
-24.2778
-23.6241
-22.7134
-21.5445
-20.1771
-18.7131
-17.2422
-15.8261
-14.5056
-13.2966
-12.2015
-11.2221
-10.3568
-9.60517
-8.9688
-8.43848
-7.99418
-7.61616
-7.2915
-7.01071
-6.76696
-6.55614
-6.37384
-6.21516
-6.07535
-5.94847
-5.82879
-5.71377
-5.60438
-5.50204
-5.4076
-5.32167
-5.24398
-5.17391
-5.11121
-5.05566
-5.00728
-4.9663
-4.93217
-4.90351
-4.87891
-4.85747
-4.83852
-4.82164
-4.8066
-4.79315
-4.781
-4.76984
-4.75925
-4.7488
-4.73832
-4.72798
-4.71794
-4.70839
-4.69954
-4.6916
-4.68485
-4.67962
-4.67611
-4.67439
-25.6764
-25.6227
-25.4965
-25.259
-24.8516
-24.2025
-23.2494
-21.9798
-20.4699
-18.8613
-17.2643
-15.7458
-14.3508
-13.0895
-11.956
-10.9507
-10.0687
-9.30902
-8.67865
-8.16704
-7.74623
-7.39063
-7.08694
-6.82537
-6.5989
-6.40491
-6.23915
-6.09639
-5.97209
-5.85918
-5.75003
-5.64188
-5.53758
-5.43954
-5.34896
-5.26694
-5.19304
-5.12633
-5.06672
-5.01398
-4.96827
-4.93042
-4.89989
-4.87481
-4.85338
-4.83472
-4.81817
-4.80333
-4.79013
-4.77837
-4.76774
-4.75799
-4.7486
-4.73898
-4.72895
-4.71881
-4.70884
-4.6992
-4.69016
-4.68195
-4.67487
-4.6694
-4.66577
-4.66403
-26.1318
-26.0979
-26.0089
-25.8194
-25.4573
-24.8273
-23.8365
-22.4526
-20.7732
-19.0003
-17.2671
-15.6398
-14.1713
-12.8613
-11.6909
-10.6619
-9.76432
-8.99522
-8.37307
-7.88592
-7.49361
-7.16258
-6.88126
-6.63973
-6.43042
-6.25351
-6.10482
-5.97834
-5.87056
-5.77278
-5.67435
-5.57213
-5.4721
-5.37792
-5.29075
-5.21257
-5.14252
-5.07903
-5.02244
-4.97235
-4.92901
-4.89426
-4.86763
-4.84638
-4.8282
-4.81235
-4.79819
-4.78532
-4.77393
-4.76385
-4.75475
-4.74647
-4.73836
-4.72957
-4.7199
-4.7099
-4.69993
-4.69015
-4.68088
-4.67233
-4.66483
-4.65908
-4.65532
-4.65358
-26.5747
-26.5643
-26.5205
-26.3926
-26.0944
-25.5026
-24.4825
-22.9684
-21.0835
-19.1248
-17.2468
-15.5043
-13.9655
-12.6128
-11.4067
-10.3574
-9.44537
-8.66338
-8.05166
-7.59652
-7.23868
-6.93366
-6.67589
-6.45514
-6.26222
-6.10255
-5.97147
-5.86132
-5.77121
-5.6902
-5.6027
-5.50485
-5.40815
-5.31738
-5.23306
-5.15873
-5.09269
-5.03223
-4.9786
-4.93099
-4.88951
-4.85785
-4.83551
-4.81844
-4.80352
-4.79049
-4.77871
-4.76768
-4.75806
-4.74966
-4.74204
-4.73531
-4.72861
-4.72067
-4.71121
-4.70128
-4.69128
-4.68129
-4.67176
-4.66281
-4.65477
-4.64867
-4.64482
-4.6431
-27.0005
-27.017
-27.0266
-26.9745
-26.7615
-26.2328
-25.1976
-23.5346
-21.395
-19.228
-17.2008
-15.3346
-13.7318
-12.3462
-11.104
-10.0389
-9.11458
-8.31242
-7.71337
-7.30047
-6.98433
-6.70533
-6.4721
-6.27302
-6.09474
-5.95246
-5.83972
-5.7454
-5.67434
-5.61241
-5.53611
-5.44022
-5.34574
-5.25812
-5.17584
-5.10552
-5.04385
-4.98603
-4.93541
-4.89013
-4.84972
-4.8211
-4.80368
-4.7912
-4.77947
-4.76926
-4.75984
-4.75045
-4.74256
-4.73584
-4.72964
-4.72454
-4.71945
-4.71237
-4.70291
-4.69296
-4.68292
-4.67264
-4.66284
-4.65344
-4.64469
-4.63818
-4.63428
-4.63262
-27.4047
-27.4513
-27.5217
-27.5601
-27.4566
-27.0224
-25.9943
-24.1619
-21.698
-19.3017
-17.1277
-15.1249
-13.4692
-12.0651
-10.7826
-9.70887
-8.77603
-7.94015
-7.35627
-6.99978
-6.73425
-6.47864
-6.27096
-6.095
-5.92802
-5.80353
-5.71033
-5.63029
-5.57998
-5.54052
-5.47588
-5.37808
-5.28475
-5.20042
-5.11891
-5.05301
-4.99637
-4.94048
-4.89305
-4.8501
-4.80946
-4.78387
-4.77226
-4.76493
-4.75611
-4.74873
-4.74172
-4.73363
-4.72744
-4.72246
-4.7175
-4.71417
-4.71096
-4.70478
-4.69499
-4.68493
-4.67489
-4.66421
-4.65415
-4.64427
-4.63457
-4.6276
-4.62372
-4.62221
-27.7836
-27.8628
-28.0007
-28.1436
-28.176
-27.8754
-26.8887
-24.8655
-21.9771
-19.3357
-17.0294
-14.8672
-13.1766
-11.7761
-10.4408
-9.3699
-8.43607
-7.54261
-6.97729
-6.69709
-6.49328
-6.25388
-6.07331
-5.92316
-5.76153
-5.65588
-5.58432
-5.51525
-5.48789
-5.47583
-5.42364
-5.31788
-5.22488
-5.14469
-5.06182
-5.00118
-4.95075
-4.89546
-4.85173
-4.81135
-4.76842
-4.74588
-4.74143
-4.73998
-4.73345
-4.72897
-4.72448
-4.71716
-4.71271
-4.70959
-4.70554
-4.70416
-4.70325
-4.69803
-4.68738
-4.67718
-4.66723
-4.65597
-4.64574
-4.6354
-4.62438
-4.61687
-4.61315
-4.61189
-28.1341
-28.2475
-28.458
-28.7185
-28.9143
-28.7947
-27.8999
-25.6684
-22.2073
-19.318
-16.9134
-14.5499
-12.8529
-11.4896
-10.0741
-9.02494
-8.10455
-7.11306
-6.57189
-6.39595
-6.26799
-6.03004
-5.87963
-5.76042
-5.59384
-5.50947
-5.46333
-5.39892
-5.39747
-5.41992
-5.38164
-5.25834
-5.16564
-5.0917
-5.00382
-4.95001
-4.90776
-4.8506
-4.81162
-4.77459
-4.72603
-4.70676
-4.71141
-4.71679
-4.7114
-4.70998
-4.70834
-4.70089
-4.69833
-4.69733
-4.69363
-4.69444
-4.69645
-4.69232
-4.67995
-4.66965
-4.66002
-4.64785
-4.63763
-4.62693
-4.61402
-4.60594
-4.6026
-4.60173
-28.4537
-28.602
-28.8885
-29.2774
-29.664
-29.7808
-29.0508
-26.6049
-22.3496
-19.2344
-16.7963
-14.155
-12.4973
-11.2223
-9.67309
-8.67718
-7.79688
-6.64038
-6.1339
-6.10116
-6.06743
-5.80394
-5.69005
-5.61115
-5.42214
-5.36411
-5.35001
-5.27897
-5.30765
-5.3747
-5.35305
-5.19716
-5.10633
-5.04282
-4.9436
-4.8994
-4.86859
-4.80512
-4.77291
-4.7409
-4.68139
-4.66597
-4.6825
-4.696
-4.68968
-4.69177
-4.69361
-4.68458
-4.68429
-4.68588
-4.68154
-4.68488
-4.69069
-4.68789
-4.67248
-4.66227
-4.65338
-4.63972
-4.62986
-4.61903
-4.60338
-4.59472
-4.59207
-4.59179
-28.7406
-28.9237
-29.2874
-29.8123
-30.4152
-30.8308
-30.3673
-27.7275
-22.3434
-19.0695
-16.709
-13.6539
-12.109
-11.0005
-9.22025
-8.3299
-7.53682
-6.10674
-5.6554
-5.81915
-5.90424
-5.56895
-5.50427
-5.48204
-5.24147
-5.21949
-5.24862
-5.15169
-5.21687
-5.34251
-5.34244
-5.13046
-5.0461
-5.00044
-4.87903
-4.84922
-4.83511
-4.75763
-4.73577
-4.71201
-4.63307
-4.62285
-4.65513
-4.6785
-4.66777
-4.67429
-4.68078
-4.6678
-4.67052
-4.67558
-4.66891
-4.67534
-4.68618
-4.68514
-4.6646
-4.65495
-4.64753
-4.63139
-4.62244
-4.61197
-4.59223
-4.58312
-4.58161
-4.58215
-28.9939
-29.2105
-29.6504
-30.315
-31.1556
-31.9366
-31.8769
-29.1156
-22.0964
-18.8066
-16.7043
-13.0017
-11.6873
-10.8648
-8.68529
-7.98645
-7.36063
-5.48415
-5.12699
-5.55827
-5.79618
-5.31326
-5.32166
-5.38342
-5.04362
-5.07523
-5.16595
-5.01134
-5.12305
-5.32609
-5.35651
-5.05203
-4.98397
-4.96847
-4.80672
-4.79934
-4.81025
-4.70577
-4.70037
-4.6906
-4.5789
-4.57664
-4.62987
-4.66557
-4.64475
-4.65749
-4.67065
-4.64986
-4.65699
-4.66697
-4.65524
-4.66562
-4.68313
-4.68466
-4.65572
-4.6476
-4.64284
-4.6225
-4.61544
-4.60617
-4.58026
-4.57104
-4.57127
-4.57292
-29.2132
-29.4612
-29.9739
-30.7773
-31.8702
-33.0832
-33.605
-30.8893
-21.4702
-18.4302
-16.8663
-12.1278
-11.232
-10.8766
-8.01875
-7.65018
-7.32264
-4.72953
-4.53863
-5.32888
-5.7682
-5.01736
-5.14134
-5.33101
-4.81549
-4.93096
-5.11244
-4.84918
-5.02368
-5.32846
-5.40497
-4.95227
-4.91896
-4.95308
-4.72135
-4.74964
-4.79844
-4.64575
-4.6669
-4.68069
-4.51556
-4.52653
-4.60747
-4.65905
-4.61916
-4.6413
-4.66443
-4.6297
-4.64367
-4.66092
-4.63978
-4.6555
-4.68181
-4.6873
-4.64497
-4.64013
-4.6399
-4.61253
-4.60888
-4.60227
-4.56699
-4.55838
-4.56115
-4.56419
-29.399
-29.6754
-30.2552
-31.1917
-32.5424
-34.247
-35.5698
-33.2276
-20.2611
-17.9281
-17.3243
-10.924
-10.7444
-11.127
-7.14315
-7.32454
-7.50283
-3.77775
-3.88142
-5.14306
-5.85536
-4.65073
-4.96254
-5.34828
-4.53694
-4.78658
-5.10372
-4.65215
-4.91609
-5.35264
-5.50196
-4.81671
-4.85024
-4.96371
-4.61478
-4.70007
-4.80637
-4.57167
-4.63555
-4.68826
-4.43807
-4.47182
-4.58881
-4.66151
-4.58871
-4.62567
-4.66396
-4.6057
-4.63057
-4.65875
-4.6214
-4.64474
-4.68249
-4.69435
-4.63105
-4.63248
-4.63962
-4.60066
-4.60284
-4.60122
-4.55168
-4.54512
-4.55139
-4.55612
-29.5523
-29.8534
-30.4928
-31.5515
-33.1544
-35.3946
-37.7723
-36.3943
-18.1741
-17.2953
-18.2687
-9.22824
-10.2284
-11.7483
-5.94133
-7.0133
-8.01659
-2.5322
-3.15076
-5.01354
-6.10659
-4.1675
-4.78499
-5.46952
-4.1777
-4.64251
-5.1626
-4.40107
-4.79799
-5.40105
-5.66782
-4.62419
-4.77744
-5.0143
-4.47484
-4.65078
-4.84377
-4.47469
-4.60652
-4.72199
-4.33907
-4.41213
-4.57482
-4.6766
-4.54996
-4.61057
-4.67193
-4.57547
-4.61771
-4.66238
-4.5985
-4.63316
-4.68541
-4.70766
-4.61206
-4.62464
-4.64337
-4.58569
-4.59738
-4.60438
-4.53326
-4.53128
-4.54216
-4.54881
-29.6746
-29.9963
-30.6862
-31.8518
-33.6886
-36.4819
-40.1827
-40.7719
-14.7898
-16.5403
-19.973
-6.80252
-9.6927
-12.9289
-4.2414
-6.72108
-9.02724
-0.852244
-2.35138
-4.95158
-6.5898
-3.50081
-4.60975
-5.74369
-3.69355
-4.50023
-5.32151
-4.06821
-4.66842
-5.47449
-5.93144
-4.34429
-4.70107
-5.12482
-4.28375
-4.60227
-4.92455
-4.34188
-4.58008
-4.79416
-4.20789
-4.3478
-4.56635
-4.70934
-4.49794
-4.59609
-4.69221
-4.53546
-4.60523
-4.67456
-4.56871
-4.62068
-4.69063
-4.72984
-4.58525
-4.61666
-4.65308
-4.56584
-4.59255
-4.61366
-4.51012
-4.51704
-4.53369
-4.54238
-29.7677
-30.1057
-30.8361
-32.0896
-34.1293
-37.4561
-42.72
-46.9049
-9.52199
-15.6933
-22.8182
-3.30645
-9.15441
-14.9311
-1.79804
-6.45427
-10.7614
1.46298
-1.50497
-4.96327
-7.39835
-2.55593
-4.44023
-6.23911
-3.02139
-4.36301
-5.62542
-3.61415
-4.52925
-5.57061
-6.33335
-3.93428
-4.62304
-5.32315
-4.01613
-4.55558
-5.06809
-4.15479
-4.55658
-4.92182
-4.02927
-4.28045
-4.56385
-4.76664
-4.42556
-4.5824
-4.73015
-4.48064
-4.59334
-4.69906
-4.52869
-4.60743
-4.69792
-4.76454
-4.54675
-4.60867
-4.67144
-4.53853
-4.58836
-4.63168
-4.47992
-4.50272
-4.52617
-4.53687
-29.834
-30.1839
-30.944
-32.2638
-34.464
-38.2583
-45.2237
-55.5553
-1.56583
-14.8171
-27.3233
1.73591
-8.64361
-18.1127
1.73025
-6.22241
-13.5274
4.695
-0.660971
-5.04373
-8.65939
-1.20173
-4.28363
-7.049
-2.07317
-4.23692
-6.13538
-2.98383
-4.3874
-5.68153
-6.9296
-3.33529
-4.5475
-5.64726
-3.63647
-4.51267
-5.30087
-3.88775
-4.53653
-5.12815
-3.78179
-4.21372
-4.56689
-4.85786
-4.32296
-4.56988
-4.79301
-4.40392
-4.5824
-4.74095
-4.47369
-4.59392
-4.7065
-4.81676
-4.49115
-4.60093
-4.70208
-4.50014
-4.58475
-4.66194
-4.4393
-4.48897
-4.51978
-4.53226
-29.8757
-30.2332
-31.0126
-32.376
-34.6859
-38.831
-47.4178
-67.77
10.1644
-14.0221
-34.179
8.97509
-8.2099
-22.9519
6.80785
-6.04016
-17.7373
9.23099
0.0887992
-5.16867
-10.5441
0.739286
-4.15291
-8.29789
-0.728713
-4.13227
-6.93249
-2.10173
-4.25788
-5.79077
-7.79649
-2.46773
-4.48182
-6.1477
-3.0963
-4.47678
-5.65824
-3.50585
-4.52067
-5.44409
-3.43595
-4.15438
-4.57349
-4.99555
-4.17674
-4.55916
-4.89047
-4.29557
-4.57296
-4.80692
-4.39716
-4.58124
-4.71469
-4.89321
-4.41111
-4.59385
-4.74976
-4.44567
-4.58156
-4.70908
-4.38355
-4.47678
-4.51456
-4.52838
-29.8953
-30.2565
-31.0452
-32.4299
-34.7944
-39.1289
-48.8639
-84.9612
27.1083
-13.4846
-44.2852
19.2808
-7.93093
-30.0752
14.0523
-5.93022
-23.9315
15.5932
0.59078
-5.2831
-13.2808
3.50235
-4.06948
-10.1491
1.17215
-4.06578
-8.12269
-0.866472
-4.16841
-5.86934
-9.03676
-1.22636
-4.43832
-6.89079
-2.33126
-4.45354
-6.18693
-2.96305
-4.51061
-5.9106
-2.95234
-4.1142
-4.57975
-5.19679
-3.96954
-4.55173
-5.03559
-4.14304
-4.56633
-4.90609
-4.29065
-4.57189
-4.72003
-5.00336
-4.29727
-4.58855
-4.82113
-4.3689
-4.57896
-4.77954
-4.30674
-4.46819
-4.51087
-4.52546
)
;

boundaryField
{
    left
    {
        type            calculated;
        value           nonuniform List<scalar> 
32
(
-20.9224
-20.9955
-21.1344
-21.3314
-21.5798
-21.8735
-22.2068
-22.5746
-22.9716
-23.3926
-23.8326
-24.2863
-24.7483
-25.2135
-25.6764
-26.1318
-26.5747
-27.0005
-27.4047
-27.7836
-28.1341
-28.4537
-28.7406
-28.9939
-29.2132
-29.399
-29.5523
-29.6746
-29.7677
-29.834
-29.8757
-29.8953
)
;
    }
    right
    {
        type            calculated;
        value           nonuniform List<scalar> 
32
(
-4.76856
-4.76688
-4.7637
-4.75922
-4.75363
-4.74709
-4.73973
-4.73169
-4.72307
-4.71397
-4.70449
-4.69468
-4.68463
-4.67439
-4.66403
-4.65358
-4.6431
-4.63262
-4.62221
-4.61189
-4.60173
-4.59179
-4.58215
-4.57292
-4.56419
-4.55612
-4.54881
-4.54238
-4.53687
-4.53226
-4.52838
-4.52546
)
;
    }
    interface
    {
        type            calculated;
        value           nonuniform List<scalar> 
64
(
-29.8999
-30.262
-31.053
-32.4428
-34.8208
-39.2046
-49.3333
-95.0031
37.0881
-13.3069
-50.2777
25.3242
-7.8419
-34.2962
18.304
-5.89677
-27.6011
19.3056
0.756083
-5.3285
-14.8946
5.12277
-4.0429
-11.2484
2.28445
-4.04466
-8.83105
-0.146091
-4.13811
-5.89644
-9.76495
-0.497315
-4.42404
-7.33238
-1.88339
-4.44597
-6.50075
-2.64494
-4.50732
-6.18734
-2.6705
-4.10075
-4.58217
-5.31579
-3.84828
-4.54912
-5.12196
-4.05399
-4.56396
-4.96531
-4.22875
-4.56849
-4.72165
-5.06825
-4.23062
-4.58656
-4.86372
-4.3241
-4.57788
-4.82157
-4.26226
-4.46516
-4.5095
-4.52431
)
;
    }
    bottom
    {
        type            calculated;
        value           nonuniform List<scalar> 
64
(
-20.9034
-20.8131
-20.6337
-20.3673
-20.0174
-19.5892
-19.0891
-18.5255
-17.9078
-17.2469
-16.5542
-15.8414
-15.1197
-14.3997
-13.6908
-13.0013
-12.3376
-11.7049
-11.107
-10.5462
-10.0237
-9.5396
-9.09328
-8.68346
-8.3084
-7.96606
-7.65421
-7.37055
-7.11278
-6.87867
-6.66613
-6.47318
-6.29806
-6.13913
-5.99496
-5.86424
-5.7458
-5.63861
-5.5417
-5.45422
-5.37535
-5.30436
-5.24056
-5.18329
-5.13193
-5.08594
-5.04477
-5.00794
-4.97501
-4.94557
-4.91927
-4.89579
-4.87485
-4.85623
-4.83972
-4.82516
-4.81243
-4.80143
-4.79209
-4.78436
-4.7782
-4.77359
-4.77053
-4.769
)
;
    }
    defaultFaces
    {
        type            empty;
    }
}


// ************************************************************************* //
