/*--------------------------------*- C++ -*----------------------------------*\
| =========                 |                                                 |
| \\      /  F ield         | OpenFOAM: The Open Source CFD Toolbox           |
|  \\    /   O peration     | Version:  5.x                                   |
|   \\  /    A nd           | Web:      www.OpenFOAM.org                      |
|    \\/     M anipulation  |                                                 |
\*---------------------------------------------------------------------------*/
FoamFile
{
    version     2.0;
    format      ascii;
    class       volScalarField;
    location    "3.3";
    object      T;
}
// * * * * * * * * * * * * * * * * * * * * * * * * * * * * * * * * * * * * * //

dimensions      [0 0 0 1 0 0 0];

internalField   nonuniform List<scalar> 
2048
(
9.84982
9.85047
9.85176
9.85368
9.85619
9.85927
9.86286
9.86691
9.87135
9.87609
9.88107
9.88619
9.89138
9.89655
9.90164
9.9066
9.91136
9.91591
9.9202
9.92423
9.92799
9.93146
9.93467
9.93762
9.94031
9.94277
9.94501
9.94705
9.9489
9.95058
9.95211
9.95349
9.95475
9.95589
9.95693
9.95787
9.95872
9.95949
9.96019
9.96082
9.96138
9.96189
9.96235
9.96276
9.96313
9.96346
9.96376
9.96402
9.96426
9.96447
9.96466
9.96483
9.96498
9.96511
9.96523
9.96533
9.96543
9.96551
9.96557
9.96563
9.96567
9.96571
9.96573
9.96574
9.55551
9.55743
9.56125
9.56693
9.57439
9.58353
9.5942
9.60623
9.61941
9.63351
9.64829
9.6635
9.67889
9.69424
9.70934
9.72403
9.73815
9.75161
9.76432
9.77624
9.78734
9.79762
9.80709
9.81578
9.82374
9.831
9.83761
9.84362
9.84908
9.85404
9.85854
9.86263
9.86634
9.8697
9.87276
9.87553
9.87804
9.88031
9.88236
9.88421
9.88588
9.88739
9.88874
9.88995
9.89104
9.89201
9.89289
9.89366
9.89436
9.89498
9.89554
9.89604
9.89648
9.89688
9.89723
9.89753
9.8978
9.89804
9.89824
9.8984
9.89853
9.89863
9.89869
9.89873
9.27261
9.27577
9.28205
9.29138
9.30365
9.31869
9.33626
9.35607
9.37779
9.40103
9.42538
9.45041
9.47573
9.50096
9.52577
9.54987
9.57303
9.59507
9.61587
9.63535
9.65347
9.67024
9.68568
9.69985
9.7128
9.72461
9.73536
9.74513
9.75401
9.76207
9.76938
9.77603
9.78205
9.78753
9.79249
9.79699
9.80107
9.80476
9.8081
9.81111
9.81382
9.81627
9.81846
9.82043
9.8222
9.82378
9.82519
9.82646
9.82759
9.8286
9.8295
9.83031
9.83103
9.83167
9.83224
9.83274
9.83318
9.83356
9.83388
9.83415
9.83436
9.83452
9.83462
9.83468
8.9999
9.00426
9.01295
9.02586
9.04285
9.06368
9.08805
9.11555
9.1457
9.17796
9.21174
9.24645
9.28153
9.31644
9.35073
9.38399
9.4159
9.44624
9.47482
9.50156
9.5264
9.54936
9.57048
9.58983
9.6075
9.62361
9.63827
9.65158
9.66367
9.67465
9.68461
9.69365
9.70185
9.7093
9.71606
9.72219
9.72775
9.73277
9.73732
9.74142
9.74511
9.74844
9.75142
9.7541
9.7565
9.75865
9.76057
9.76229
9.76383
9.7652
9.76643
9.76752
9.7685
9.76937
9.77015
9.77083
9.77143
9.77195
9.77239
9.77275
9.77304
9.77326
9.77341
9.77348
8.73636
8.7419
8.75294
8.76938
8.79102
8.8176
8.84872
8.88387
8.92243
8.96368
9.00686
9.05119
9.09593
9.1404
9.18399
9.22621
9.26666
9.30503
9.34113
9.37483
9.4061
9.43494
9.46144
9.48569
9.50782
9.52797
9.54628
9.56291
9.578
9.5917
9.60413
9.61541
9.62566
9.63495
9.64339
9.65105
9.65798
9.66426
9.66993
9.67505
9.67966
9.68381
9.68753
9.69087
9.69386
9.69653
9.69893
9.70106
9.70298
9.70469
9.70621
9.70758
9.7088
9.70988
9.71085
9.7117
9.71245
9.7131
9.71365
9.71411
9.71447
9.71475
9.71493
9.71502
8.48114
8.48784
8.5012
8.5211
8.54736
8.57966
8.61753
8.66036
8.70737
8.75766
8.81028
8.86424
8.91861
8.97256
9.02535
9.07638
9.12515
9.17133
9.21468
9.25506
9.29246
9.3269
9.35849
9.38735
9.41366
9.43758
9.45931
9.47902
9.49691
9.51313
9.52785
9.54122
9.55335
9.56437
9.57437
9.58344
9.59166
9.5991
9.60583
9.61189
9.61735
9.62226
9.62667
9.63062
9.63415
9.63731
9.64014
9.64266
9.64492
9.64694
9.64874
9.65036
9.6518
9.65308
9.65422
9.65524
9.65612
9.65689
9.65755
9.6581
9.65853
9.65886
9.65908
9.65919
8.23355
8.24138
8.25701
8.28033
8.31117
8.34918
8.39384
8.44443
8.49999
8.55944
8.62159
8.68525
8.74929
8.81269
8.8746
8.93429
8.99122
9.04498
9.09533
9.14213
9.18537
9.22511
9.26149
9.29468
9.32488
9.35232
9.37722
9.39979
9.42025
9.43881
9.45565
9.47093
9.48482
9.49743
9.50888
9.51926
9.52868
9.5372
9.54489
9.55184
9.55809
9.5637
9.56873
9.57324
9.57728
9.58088
9.5841
9.58698
9.58955
9.59185
9.59391
9.59575
9.59739
9.59886
9.60017
9.60133
9.60235
9.60323
9.60399
9.60462
9.60512
9.6055
9.60575
9.60588
7.99301
8.00193
8.01977
8.04646
8.08183
8.12556
8.17708
8.23553
8.29981
8.36859
8.44043
8.51391
8.58768
8.66055
8.73152
8.79977
8.86469
8.92583
8.98293
9.03587
9.08466
9.12941
9.17029
9.20752
9.24135
9.27204
9.29985
9.32505
9.34789
9.36859
9.38737
9.40442
9.41992
9.43399
9.44678
9.45838
9.4689
9.47841
9.48701
9.49476
9.50174
9.508
9.51361
9.51863
9.52311
9.52712
9.5307
9.5339
9.53676
9.53932
9.5416
9.54365
9.54548
9.54711
9.54857
9.54987
9.55101
9.552
9.55285
9.55356
9.55413
9.55456
9.55484
9.55498
7.75904
7.76902
7.78901
7.81898
7.85885
7.90829
7.96673
8.03321
8.1064
8.18473
8.26648
8.34994
8.43355
8.51591
8.59591
8.67262
8.74537
8.81369
8.8773
8.93611
8.99017
9.03962
9.0847
9.12569
9.16287
9.19656
9.22705
9.25465
9.27965
9.3023
9.32286
9.34153
9.3585
9.37393
9.38794
9.40066
9.41219
9.42263
9.43206
9.44055
9.44819
9.45504
9.46117
9.46666
9.47155
9.47593
9.47983
9.48332
9.48643
9.48922
9.49171
9.49394
9.49594
9.49772
9.49932
9.50074
9.502
9.5031
9.50404
9.50482
9.50545
9.50592
9.50624
9.5064
7.53127
7.54226
7.5643
7.59746
7.64174
7.6969
7.76234
7.83702
7.91938
8.00754
8.09945
8.1931
8.28666
8.37857
8.46756
8.55264
8.63307
8.70836
8.77825
8.84266
8.90168
8.95554
9.00453
9.04899
9.08925
9.12568
9.15862
9.1884
9.21536
9.23978
9.26195
9.28209
9.30041
9.31708
9.33222
9.34597
9.35844
9.36972
9.3799
9.38908
9.39732
9.40471
9.41132
9.41722
9.42248
9.42718
9.43137
9.43512
9.43846
9.44145
9.44413
9.44652
9.44867
9.4506
9.45232
9.45386
9.45522
9.45642
9.45744
9.4583
9.45899
9.45951
9.45985
9.46003
7.30941
7.32133
7.3453
7.38152
7.4301
7.49095
7.56349
7.64657
7.7384
7.83672
7.93909
8.04316
8.14682
8.24833
8.34629
8.43963
8.52759
8.60966
8.68557
8.75529
8.81899
8.87696
8.92957
8.97721
9.0203
9.05922
9.09437
9.12612
9.15483
9.18085
9.20447
9.22595
9.2455
9.26329
9.27947
9.29417
9.30749
9.31954
9.33042
9.34022
9.34902
9.35689
9.36392
9.3702
9.37579
9.38078
9.38523
9.3892
9.39274
9.39591
9.39875
9.40129
9.40358
9.40563
9.40747
9.40912
9.41058
9.41186
9.41297
9.41389
9.41464
9.4152
9.41558
9.41577
7.09322
7.10599
7.13176
7.17085
7.22359
7.29005
7.36977
7.4615
7.56315
7.67201
7.78518
7.89992
8.01384
8.125
8.23189
8.33341
8.42874
8.51737
8.59904
8.67379
8.74186
8.80364
8.85957
8.91013
8.95578
8.99695
9.03409
9.0676
9.09789
9.12533
9.15025
9.17294
9.1936
9.21243
9.22955
9.24511
9.25922
9.27198
9.2835
9.29386
9.30316
9.31147
9.31888
9.32549
9.33137
9.33661
9.34128
9.34545
9.34917
9.3525
9.35548
9.35816
9.36056
9.36272
9.36467
9.36642
9.36797
9.36934
9.37052
9.37152
9.37232
9.37293
9.37333
9.37354
6.88254
6.89607
6.92343
6.96517
7.02187
7.09385
7.18082
7.28146
7.39333
7.51317
7.63753
7.76321
7.88753
8.00838
8.12418
8.23375
8.33629
8.43127
8.51846
8.59794
8.67007
8.73535
8.79432
8.84752
8.89548
8.93868
8.97758
9.01265
9.04433
9.07303
9.09911
9.12288
9.14457
9.16433
9.18232
9.19867
9.21349
9.2269
9.239
9.24988
9.25963
9.26833
9.27608
9.28298
9.28911
9.29457
9.29943
9.30377
9.30765
9.31112
9.31422
9.31701
9.31952
9.32178
9.32383
9.32567
9.32731
9.32876
9.33002
9.33107
9.33193
9.33258
9.33302
9.33324
6.67725
6.69141
6.72016
6.76426
6.82465
6.902
6.99627
7.10613
7.2287
7.36002
7.49596
7.63288
7.76774
7.89831
8.02294
8.14045
8.25003
8.35116
8.4436
8.5275
8.60337
8.67184
8.73356
8.78915
8.83918
8.88418
8.92465
8.96109
8.99398
9.02377
9.05088
9.07563
9.09823
9.11886
9.13764
9.15471
9.17019
9.18419
9.19681
9.20816
9.21832
9.22737
9.23542
9.24256
9.24891
9.25456
9.25959
9.26408
9.26808
9.27166
9.27488
9.27776
9.28036
9.28272
9.28485
9.28678
9.2885
9.29003
9.29136
9.29248
9.29339
9.29408
9.29455
9.29478
6.47728
6.49194
6.5218
6.56794
6.63167
6.71417
6.81577
6.93518
7.06901
7.21236
7.36034
7.50878
7.65431
7.79459
7.92798
8.05329
8.16974
8.2768
8.37423
8.46224
8.54151
8.61287
8.67706
8.73478
8.78666
8.83325
8.87509
8.91272
8.94664
8.97738
9.00539
9.03102
9.05446
9.07587
9.09538
9.11311
9.12918
9.14372
9.15682
9.1686
9.17912
9.18849
9.19679
9.20414
9.21067
9.21648
9.22165
9.22626
9.23037
9.23406
9.23736
9.24033
9.24301
9.24544
9.24765
9.24966
9.25146
9.25306
9.25446
9.25565
9.25662
9.25735
9.25784
9.25809
6.2826
6.29759
6.32828
6.37605
6.4427
6.53003
6.63895
6.76831
6.91407
7.07008
7.23056
7.3908
7.5471
7.69704
7.83909
7.97206
8.09519
8.208
8.31013
8.4019
8.48424
8.55818
8.62458
8.68419
8.73771
8.78569
8.82871
8.86735
8.90215
8.93368
8.96248
8.98889
9.01309
9.03522
9.0554
9.07374
9.09035
9.10537
9.11892
9.13107
9.14194
9.15157
9.16009
9.16762
9.1743
9.18023
9.18551
9.19023
9.19444
9.1982
9.20158
9.20461
9.20736
9.20986
9.21215
9.21423
9.21611
9.21779
9.21925
9.2205
9.22152
9.2223
9.22282
9.22308
6.0932
6.10835
6.13954
6.18847
6.25753
6.34929
6.46545
6.60519
6.76368
6.93307
7.1065
7.27884
7.44595
7.60548
7.75607
7.89651
8.02614
8.14451
8.25109
8.34626
8.43131
8.50753
8.57587
8.63714
8.6921
8.74129
8.78532
8.82481
8.86033
8.89251
8.92196
8.94909
8.974
8.9968
9.01759
9.03647
9.05357
9.06904
9.08298
9.09549
9.10666
9.11653
9.12522
9.13289
9.13969
9.14573
9.15111
9.15591
9.16019
9.16402
9.16746
9.17055
9.17335
9.17591
9.17826
9.18042
9.18237
9.18411
9.18565
9.18696
9.18804
9.18886
9.1894
9.18967
5.90909
5.92423
5.95554
6.00512
6.07597
6.17163
6.29489
6.44551
6.61773
6.80125
6.9881
7.17282
7.35074
7.51969
7.67869
7.8264
7.96236
8.08615
8.19689
8.29507
8.38244
8.46067
8.53069
8.59342
8.64965
8.69988
8.74474
8.78493
8.82101
8.85368
8.8837
8.91149
8.93705
8.96046
8.98183
9.00121
9.01875
9.03462
9.04892
9.06175
9.07319
9.08328
9.09211
9.09988
9.10676
9.11288
9.11833
9.1232
9.12755
9.13143
9.13491
9.13804
9.14089
9.1435
9.14592
9.14814
9.15016
9.15198
9.15358
9.15495
9.15609
9.15695
9.15752
9.1578
5.73029
5.74523
5.77629
5.82594
5.89788
5.99676
6.12684
6.2889
6.47612
6.6746
6.87526
7.07267
7.26132
7.43947
7.60675
7.7615
7.90357
8.03272
8.14734
8.24808
8.33738
8.41736
8.48883
8.55279
8.61015
8.66125
8.7068
8.74756
8.78403
8.81705
8.84753
8.87595
8.90213
8.9261
8.948
8.96783
8.98576
9.00201
9.01663
9.02975
9.04146
9.05172
9.06064
9.06848
9.07544
9.08161
9.08712
9.09204
9.09643
9.10036
9.10387
9.10703
9.1099
9.11256
9.11504
9.11733
9.11941
9.1213
9.12296
9.1244
9.1256
9.1265
9.1271
9.1274
5.55685
5.5714
5.60182
5.65091
5.72312
5.82437
5.96085
6.135
6.33884
6.55313
6.76791
6.97835
7.17755
7.36455
7.54003
7.70155
7.84949
7.98403
8.10227
8.20504
8.29584
8.37736
8.45005
8.51504
8.57342
8.62525
8.67132
8.71254
8.74926
8.78245
8.8133
8.84234
8.86911
8.8936
8.91602
8.93624
8.95451
8.97111
8.98601
8.99939
9.01136
9.02177
9.03075
9.03862
9.04562
9.05183
9.05738
9.06235
9.06678
9.07072
9.07427
9.07744
9.08032
9.08302
9.08556
9.08791
9.09006
9.09201
9.09375
9.09525
9.09651
9.09746
9.09808
9.09838
5.3888
5.40277
5.43215
5.48005
5.55161
5.65421
5.79642
5.98334
6.20599
6.43691
6.66591
6.88987
7.0993
7.29466
7.47836
7.64627
7.79982
7.93994
8.06152
8.16571
8.25752
8.34045
8.41415
8.47995
8.5393
8.59171
8.63814
8.67974
8.71656
8.74972
8.78085
8.81057
8.83789
8.86285
8.88577
8.90634
8.9249
8.94182
8.95698
8.9706
8.98283
8.99337
9.00235
9.01021
9.01724
9.02348
9.02904
9.03405
9.0385
9.04246
9.04603
9.0492
9.05208
9.05481
9.05742
9.05983
9.06204
9.06406
9.06585
9.06742
9.06875
9.06975
9.07039
9.0707
5.22617
5.23939
5.26734
5.31339
5.38332
5.48601
5.63302
5.83337
6.07781
6.32604
6.56907
6.80727
7.02642
7.22945
7.42156
7.59541
7.75418
7.90035
8.02496
8.12981
8.22212
8.30644
8.38091
8.4473
8.50764
8.56047
8.60708
8.64906
8.6858
8.71873
8.75003
8.78052
8.80838
8.83374
8.85719
8.87805
8.89682
8.91408
8.92945
8.94326
8.9558
8.96644
8.97537
8.98317
8.99023
8.99646
9.00203
9.00709
9.01154
9.0155
9.01909
9.02226
9.02512
9.02786
9.03055
9.03302
9.03528
9.03738
9.03923
9.04086
9.04227
9.04331
9.04397
9.04429
5.06899
5.08129
5.10746
5.15101
5.21825
5.31956
5.47001
5.68439
5.95476
6.22067
6.47708
6.73069
6.95877
7.16848
7.36957
7.54869
7.71213
7.86523
7.99251
8.09709
8.18929
8.27518
8.35016
8.41686
8.47832
8.53139
8.57798
8.62039
8.65688
8.6893
8.72068
8.75214
8.78048
8.80616
8.83019
8.85126
8.87016
8.8878
8.90332
8.9173
8.9302
8.94091
8.94971
8.95742
8.96452
8.97073
8.97627
8.98139
8.98584
8.98978
8.9934
8.99654
8.99935
9.00211
9.00489
9.00742
9.00973
9.0119
9.01381
9.0155
9.017
9.01809
9.01877
9.01908
4.91726
4.92851
4.95256
4.99299
5.05646
5.15472
5.30675
5.53546
5.83762
6.12102
6.38945
6.66043
6.8962
7.11118
7.32239
7.50583
7.67313
7.83464
7.96411
8.06723
8.15864
8.24655
8.32172
8.38836
8.45127
8.50434
8.55065
8.59366
8.62971
8.66129
8.6926
8.72536
8.75413
8.77998
8.80473
8.82591
8.84484
8.86293
8.87853
8.89261
8.90599
8.91674
8.92532
8.93288
8.94005
8.94622
8.95171
8.95691
8.96134
8.96524
8.9689
8.972
8.97474
8.97749
8.98041
8.98298
8.98532
8.98759
8.98954
8.99128
8.9929
8.99404
8.99472
8.99503
4.77097
4.78105
4.80271
4.83944
4.89807
4.9914
5.14252
5.38528
5.72758
6.02732
6.30538
6.59696
6.83858
7.05679
7.28022
7.46655
7.63646
7.80878
7.93974
8.03992
8.1297
8.22053
8.29543
8.36151
8.42645
8.4792
8.52487
8.56886
8.60421
8.63455
8.66562
8.70019
8.72924
8.75508
8.78077
8.80192
8.82072
8.83942
8.855
8.86908
8.88313
8.89386
8.90212
8.90946
8.91678
8.92285
8.92826
8.93359
8.93797
8.94181
8.94555
8.94858
8.95121
8.95395
8.95703
8.95964
8.962
8.96439
8.96636
8.96815
8.96992
8.97111
8.97178
8.97207
4.63011
4.63893
4.65795
4.6905
4.74326
4.82964
4.97662
5.23204
5.62647
5.93981
6.22368
6.5411
6.78574
7.00427
7.24348
7.43059
7.60116
7.78806
7.91942
8.01482
8.10194
8.19719
8.27116
8.33595
8.40391
8.45585
8.50039
8.54598
8.58032
8.60892
8.63948
8.67667
8.70577
8.7313
8.75831
8.77922
8.79767
8.81726
8.83266
8.8466
8.86159
8.87224
8.88003
8.88708
8.89465
8.90059
8.90586
8.9114
8.91569
8.91942
8.92329
8.92623
8.92872
8.93142
8.93474
8.93737
8.93971
8.94225
8.94423
8.94604
8.94801
8.94923
8.94989
8.95016
4.49464
4.50213
4.51834
4.54628
4.59224
4.6696
4.80839
5.07322
5.53696
5.85873
6.1426
6.49413
6.73753
6.95224
7.21297
7.39767
7.56596
7.77316
7.90318
7.99156
8.07468
8.17677
8.24877
8.31124
8.38377
8.43419
8.4769
8.5251
8.55799
8.58424
8.61391
8.6549
8.68364
8.70843
8.73738
8.75774
8.77554
8.79644
8.81142
8.82501
8.8414
8.85182
8.85898
8.86564
8.87364
8.87937
8.88442
8.89029
8.89444
8.89802
8.9021
8.90492
8.9072
8.90983
8.9135
8.9161
8.91839
8.92114
8.9231
8.92489
8.92713
8.92838
8.92899
8.92925
4.36449
4.3706
4.38388
4.40692
4.44529
4.5116
4.63732
4.90527
5.46285
5.78427
6.05959
6.45795
6.69375
6.89876
7.18994
7.36752
7.52917
7.76515
7.89102
7.96975
8.04708
8.15968
8.22813
8.28681
8.36632
8.41411
8.45399
8.50639
8.53717
8.56037
8.58856
8.63508
8.66282
8.68623
8.71807
8.73741
8.75413
8.77702
8.79125
8.80416
8.82258
8.83257
8.8389
8.84504
8.85374
8.85914
8.86386
8.87026
8.87418
8.87751
8.88195
8.88458
8.8866
8.8891
8.89328
8.8958
8.89797
8.90103
8.90291
8.90465
8.90725
8.9085
8.90906
8.90927
4.23957
4.2443
4.25458
4.27252
4.30271
4.35611
4.46322
4.72324
5.40943
5.71648
5.97112
6.43538
6.65416
6.84125
7.17632
7.33987
7.48849
7.76564
7.88289
7.94899
8.0181
8.1466
8.20913
8.26191
8.35197
8.3955
8.43118
8.4901
8.51784
8.53719
8.56296
8.61753
8.64323
8.66439
8.70054
8.71817
8.73322
8.75911
8.77205
8.78381
8.80522
8.81444
8.81973
8.82516
8.83497
8.83986
8.84409
8.8513
8.85485
8.85784
8.86283
8.8652
8.86688
8.86917
8.87408
8.87641
8.87839
8.88189
8.88362
8.88524
8.88836
8.88955
8.89002
8.8902
4.11981
4.12314
4.13042
4.14316
4.16479
4.2038
4.28641
4.52037
5.38399
5.65519
5.87235
6.43039
6.61845
6.77625
7.17489
7.31444
7.44091
7.77693
7.87858
7.92895
7.98636
8.13857
8.19162
8.23558
8.34141
8.37823
8.40779
8.47663
8.49993
8.51459
8.53654
8.6027
8.62481
8.6425
8.68503
8.69996
8.71249
8.74285
8.75379
8.76371
8.78944
8.79738
8.80139
8.80587
8.81736
8.82148
8.82499
8.83343
8.83642
8.83889
8.84472
8.84671
8.84799
8.84994
8.85591
8.85791
8.85958
8.86372
8.86519
8.86658
8.87043
8.87149
8.87185
8.87198
4.00507
4.00705
4.01136
4.01892
4.03183
4.05545
4.10796
4.28745
5.39629
5.59993
5.75683
6.4485
6.58617
6.69921
7.18955
7.29094
7.38246
7.80222
7.87762
7.90936
7.95016
8.13702
8.17544
8.20659
8.33558
8.36218
8.383
8.46658
8.48334
8.49254
8.50855
8.59125
8.60748
8.62004
8.67191
8.6827
8.69158
8.72852
8.73639
8.74353
8.77546
8.78132
8.78383
8.78699
8.80098
8.80394
8.80642
8.81668
8.81883
8.82058
8.82766
8.82909
8.82989
8.83132
8.83878
8.84025
8.84144
8.84651
8.84758
8.8486
8.85346
8.85426
8.8545
8.85457
3.89525
3.8959
3.89732
3.89981
3.90408
3.91196
3.93015
4.01218
5.45922
5.54973
5.61614
6.49714
6.55671
6.60422
7.22556
7.26903
7.30801
7.84587
7.87919
7.89011
7.9073
8.14393
8.16039
8.17333
8.3358
8.34717
8.35576
8.46075
8.46792
8.47108
8.47802
8.58406
8.59112
8.59634
8.6617
8.66631
8.67
8.71646
8.71981
8.72282
8.76358
8.76615
8.76701
8.76833
8.78595
8.78721
8.78824
8.80113
8.80205
8.80277
8.81166
8.81227
8.81255
8.81317
8.82274
8.82338
8.82388
8.8303
8.83075
8.83119
8.83747
8.83784
8.83792
8.83794
)
;

boundaryField
{
    left
    {
        type            zeroGradient;
    }
    right
    {
        type            zeroGradient;
    }
    interface
    {
        type            fixedValue;
        value           nonuniform List<scalar> 
64
(
3.84154
3.84154
3.84154
3.84154
3.84154
3.84154
3.84154
3.84154
5.52583
5.52583
5.52583
6.54262
6.54262
6.54262
7.25844
7.25844
7.25844
7.88054
7.88054
7.88054
7.88054
8.15313
8.15313
8.15313
8.3399
8.3399
8.3399
8.46048
8.46048
8.46048
8.46048
8.58317
8.58317
8.58317
8.65832
8.65832
8.65832
8.71171
8.71171
8.71171
8.75878
8.75878
8.75878
8.75878
8.77904
8.77904
8.77904
8.79385
8.79385
8.79385
8.80407
8.80407
8.80407
8.80407
8.81514
8.81514
8.81514
8.82253
8.82253
8.82253
8.82982
8.82982
8.82982
8.82982
)
;
    }
    bottom
    {
        type            fixedValue;
        value           uniform 10;
    }
    defaultFaces
    {
        type            empty;
    }
}


// ************************************************************************* //
