/*--------------------------------*- C++ -*----------------------------------*\
| =========                 |                                                 |
| \\      /  F ield         | OpenFOAM: The Open Source CFD Toolbox           |
|  \\    /   O peration     | Version:  5.x                                   |
|   \\  /    A nd           | Web:      www.OpenFOAM.org                      |
|    \\/     M anipulation  |                                                 |
\*---------------------------------------------------------------------------*/
FoamFile
{
    version     2.0;
    format      ascii;
    class       volScalarField;
    location    "0.1";
    object      gradTy;
}
// * * * * * * * * * * * * * * * * * * * * * * * * * * * * * * * * * * * * * //

dimensions      [0 -1 0 1 0 0 0];

internalField   nonuniform List<scalar> 
2048
(
-36.9604
-36.9594
-36.9577
-36.9551
-36.9518
-36.9478
-36.9432
-36.9383
-36.933
-36.9277
-36.9224
-36.9172
-36.9123
-36.9077
-36.9035
-36.8997
-36.8964
-36.8934
-36.8909
-36.8887
-36.8868
-36.8852
-36.8839
-36.8828
-36.8819
-36.8811
-36.8805
-36.88
-36.8795
-36.8792
-36.8789
-36.8787
-36.8785
-36.8783
-36.8782
-36.8781
-36.8781
-36.878
-36.878
-36.8779
-36.8779
-36.8779
-36.8779
-36.8779
-36.8779
-36.8778
-36.8778
-36.8778
-36.8778
-36.8778
-36.8778
-36.8778
-36.8777
-36.8777
-36.8777
-36.8776
-36.8776
-36.8775
-36.8775
-36.8775
-36.8774
-36.8774
-36.8774
-36.8774
-36.9561
-36.9551
-36.9533
-36.9507
-36.9472
-36.9431
-36.9385
-36.9334
-36.928
-36.9225
-36.917
-36.9117
-36.9067
-36.9021
-36.8979
-36.8941
-36.8907
-36.8878
-36.8852
-36.8831
-36.8812
-36.8796
-36.8783
-36.8773
-36.8764
-36.8756
-36.875
-36.8745
-36.8741
-36.8737
-36.8735
-36.8732
-36.8731
-36.8729
-36.8728
-36.8727
-36.8726
-36.8726
-36.8725
-36.8725
-36.8725
-36.8725
-36.8725
-36.8725
-36.8724
-36.8724
-36.8724
-36.8724
-36.8724
-36.8724
-36.8724
-36.8724
-36.8723
-36.8723
-36.8723
-36.8722
-36.8722
-36.8721
-36.8721
-36.8721
-36.872
-36.872
-36.872
-36.872
-36.9479
-36.9469
-36.9451
-36.9423
-36.9387
-36.9344
-36.9294
-36.924
-36.9184
-36.9126
-36.9069
-36.9014
-36.8963
-36.8915
-36.8872
-36.8834
-36.88
-36.8771
-36.8746
-36.8724
-36.8706
-36.8691
-36.8678
-36.8668
-36.8659
-36.8652
-36.8646
-36.8641
-36.8637
-36.8634
-36.8632
-36.8629
-36.8628
-36.8626
-36.8625
-36.8625
-36.8624
-36.8623
-36.8623
-36.8623
-36.8623
-36.8622
-36.8622
-36.8622
-36.8622
-36.8622
-36.8622
-36.8622
-36.8622
-36.8622
-36.8622
-36.8621
-36.8621
-36.8621
-36.8621
-36.862
-36.862
-36.8619
-36.8619
-36.8618
-36.8618
-36.8618
-36.8617
-36.8617
-36.9365
-36.9354
-36.9334
-36.9305
-36.9266
-36.922
-36.9167
-36.9109
-36.9049
-36.8987
-36.8927
-36.8869
-36.8815
-36.8766
-36.8721
-36.8682
-36.8649
-36.862
-36.8595
-36.8574
-36.8557
-36.8542
-36.853
-36.852
-36.8512
-36.8505
-36.85
-36.8495
-36.8492
-36.8489
-36.8486
-36.8485
-36.8483
-36.8482
-36.8481
-36.848
-36.8479
-36.8479
-36.8479
-36.8478
-36.8478
-36.8478
-36.8478
-36.8478
-36.8478
-36.8478
-36.8478
-36.8478
-36.8478
-36.8478
-36.8478
-36.8477
-36.8477
-36.8477
-36.8477
-36.8476
-36.8476
-36.8475
-36.8475
-36.8474
-36.8474
-36.8473
-36.8473
-36.8473
-36.9223
-36.9211
-36.919
-36.9158
-36.9116
-36.9066
-36.9009
-36.8946
-36.888
-36.8813
-36.8748
-36.8686
-36.8629
-36.8578
-36.8532
-36.8493
-36.8459
-36.8431
-36.8407
-36.8387
-36.837
-36.8356
-36.8345
-36.8336
-36.8328
-36.8322
-36.8317
-36.8313
-36.831
-36.8307
-36.8305
-36.8303
-36.8302
-36.8301
-36.83
-36.8299
-36.8299
-36.8298
-36.8298
-36.8298
-36.8298
-36.8298
-36.8298
-36.8298
-36.8298
-36.8298
-36.8298
-36.8298
-36.8298
-36.8298
-36.8297
-36.8297
-36.8297
-36.8297
-36.8296
-36.8296
-36.8296
-36.8295
-36.8295
-36.8294
-36.8294
-36.8293
-36.8293
-36.8293
-36.9057
-36.9045
-36.9022
-36.8987
-36.8942
-36.8887
-36.8824
-36.8754
-36.8682
-36.8608
-36.8537
-36.8471
-36.841
-36.8357
-36.831
-36.827
-36.8237
-36.8209
-36.8186
-36.8167
-36.8151
-36.8139
-36.8128
-36.812
-36.8113
-36.8107
-36.8103
-36.8099
-36.8097
-36.8094
-36.8092
-36.8091
-36.809
-36.8089
-36.8088
-36.8087
-36.8087
-36.8087
-36.8087
-36.8086
-36.8086
-36.8086
-36.8086
-36.8086
-36.8086
-36.8086
-36.8086
-36.8086
-36.8086
-36.8086
-36.8086
-36.8086
-36.8086
-36.8086
-36.8085
-36.8085
-36.8084
-36.8084
-36.8083
-36.8083
-36.8083
-36.8082
-36.8082
-36.8082
-36.8872
-36.8859
-36.8834
-36.8797
-36.8747
-36.8687
-36.8616
-36.8539
-36.8458
-36.8377
-36.8299
-36.8227
-36.8163
-36.8107
-36.8059
-36.8019
-36.7986
-36.7959
-36.7937
-36.7919
-36.7905
-36.7894
-36.7884
-36.7877
-36.7871
-36.7866
-36.7862
-36.7859
-36.7857
-36.7855
-36.7853
-36.7852
-36.7851
-36.785
-36.785
-36.7849
-36.7849
-36.7849
-36.7849
-36.7849
-36.7848
-36.7848
-36.7848
-36.7849
-36.7849
-36.7849
-36.7849
-36.7849
-36.7849
-36.7849
-36.7849
-36.7849
-36.7849
-36.7848
-36.7848
-36.7848
-36.7847
-36.7847
-36.7846
-36.7846
-36.7845
-36.7845
-36.7844
-36.7845
-36.8672
-36.8658
-36.8631
-36.8591
-36.8536
-36.8469
-36.8391
-36.8305
-36.8214
-36.8123
-36.8038
-36.7959
-36.7891
-36.7832
-36.7783
-36.7743
-36.7711
-36.7685
-36.7665
-36.7649
-36.7636
-36.7626
-36.7618
-36.7611
-36.7606
-36.7602
-36.7599
-36.7597
-36.7595
-36.7593
-36.7592
-36.7591
-36.759
-36.759
-36.7589
-36.7589
-36.7589
-36.7588
-36.7588
-36.7588
-36.7588
-36.7588
-36.7589
-36.7589
-36.7589
-36.7589
-36.7589
-36.7589
-36.7589
-36.7589
-36.7589
-36.7589
-36.7589
-36.7589
-36.7588
-36.7588
-36.7588
-36.7587
-36.7587
-36.7586
-36.7586
-36.7586
-36.7585
-36.7585
-36.8459
-36.8444
-36.8416
-36.8372
-36.8313
-36.8239
-36.8152
-36.8054
-36.7952
-36.785
-36.7755
-36.767
-36.7597
-36.7536
-36.7486
-36.7447
-36.7416
-36.7392
-36.7373
-36.7359
-36.7348
-36.7339
-36.7332
-36.7327
-36.7323
-36.732
-36.7317
-36.7315
-36.7314
-36.7313
-36.7312
-36.7311
-36.7311
-36.731
-36.731
-36.731
-36.731
-36.731
-36.731
-36.731
-36.731
-36.731
-36.731
-36.731
-36.731
-36.7311
-36.7311
-36.7311
-36.7311
-36.7311
-36.7311
-36.7311
-36.7311
-36.7311
-36.7311
-36.731
-36.731
-36.7309
-36.7309
-36.7308
-36.7308
-36.7308
-36.7307
-36.7308
-36.8236
-36.8221
-36.8191
-36.8145
-36.8081
-36.7999
-36.7901
-36.7791
-36.7675
-36.7561
-36.7455
-36.7362
-36.7284
-36.7221
-36.7172
-36.7133
-36.7104
-36.7082
-36.7066
-36.7053
-36.7044
-36.7037
-36.7032
-36.7028
-36.7025
-36.7022
-36.7021
-36.7019
-36.7018
-36.7018
-36.7017
-36.7017
-36.7016
-36.7016
-36.7016
-36.7016
-36.7016
-36.7016
-36.7016
-36.7016
-36.7017
-36.7017
-36.7017
-36.7017
-36.7017
-36.7017
-36.7017
-36.7018
-36.7018
-36.7018
-36.7018
-36.7018
-36.7018
-36.7018
-36.7018
-36.7017
-36.7017
-36.7017
-36.7016
-36.7016
-36.7016
-36.7016
-36.7015
-36.7016
-36.8007
-36.7991
-36.796
-36.7912
-36.7843
-36.7753
-36.7643
-36.7518
-36.7386
-36.7257
-36.7139
-36.7038
-36.6956
-36.6892
-36.6842
-36.6806
-36.6779
-36.6759
-36.6745
-36.6735
-36.6728
-36.6723
-36.6719
-36.6716
-36.6715
-36.6713
-36.6712
-36.6712
-36.6711
-36.6711
-36.6711
-36.671
-36.671
-36.671
-36.671
-36.6711
-36.6711
-36.6711
-36.6711
-36.6711
-36.6711
-36.6712
-36.6712
-36.6712
-36.6712
-36.6712
-36.6713
-36.6713
-36.6713
-36.6713
-36.6713
-36.6713
-36.6713
-36.6713
-36.6713
-36.6713
-36.6713
-36.6712
-36.6712
-36.6712
-36.6712
-36.6712
-36.6712
-36.6713
-36.7772
-36.7757
-36.7725
-36.7676
-36.7602
-36.7505
-36.7382
-36.7239
-36.7088
-36.6941
-36.681
-36.6701
-36.6614
-36.6549
-36.6501
-36.6467
-36.6443
-36.6427
-36.6416
-36.6408
-36.6403
-36.64
-36.6398
-36.6396
-36.6396
-36.6395
-36.6395
-36.6395
-36.6395
-36.6395
-36.6395
-36.6395
-36.6396
-36.6396
-36.6396
-36.6396
-36.6396
-36.6397
-36.6397
-36.6397
-36.6397
-36.6398
-36.6398
-36.6398
-36.6398
-36.6398
-36.6399
-36.6399
-36.6399
-36.6399
-36.64
-36.64
-36.64
-36.64
-36.64
-36.64
-36.6399
-36.6399
-36.6399
-36.6399
-36.6399
-36.6399
-36.64
-36.6401
-36.7534
-36.752
-36.7488
-36.7439
-36.7361
-36.7256
-36.7119
-36.6957
-36.6783
-36.6615
-36.6469
-36.6351
-36.6262
-36.6196
-36.6151
-36.612
-36.61
-36.6087
-36.6079
-36.6075
-36.6072
-36.6071
-36.607
-36.607
-36.6071
-36.6071
-36.6072
-36.6072
-36.6073
-36.6073
-36.6074
-36.6074
-36.6074
-36.6075
-36.6075
-36.6075
-36.6076
-36.6076
-36.6076
-36.6077
-36.6077
-36.6077
-36.6078
-36.6078
-36.6078
-36.6078
-36.6079
-36.6079
-36.6079
-36.6079
-36.608
-36.608
-36.608
-36.608
-36.608
-36.608
-36.608
-36.608
-36.608
-36.608
-36.608
-36.6081
-36.6081
-36.6083
-36.7294
-36.7282
-36.7251
-36.7203
-36.7123
-36.7011
-36.6859
-36.6673
-36.6472
-36.6281
-36.6118
-36.5992
-36.5899
-36.5836
-36.5794
-36.5768
-36.5752
-36.5743
-36.5739
-36.5737
-36.5737
-36.5738
-36.5739
-36.574
-36.5742
-36.5743
-36.5744
-36.5745
-36.5746
-36.5747
-36.5748
-36.5749
-36.5749
-36.575
-36.575
-36.5751
-36.5751
-36.5752
-36.5752
-36.5752
-36.5753
-36.5753
-36.5753
-36.5754
-36.5754
-36.5754
-36.5755
-36.5755
-36.5755
-36.5756
-36.5756
-36.5756
-36.5756
-36.5757
-36.5757
-36.5757
-36.5757
-36.5757
-36.5757
-36.5757
-36.5758
-36.5758
-36.5759
-36.5761
-36.7054
-36.7044
-36.7015
-36.6971
-36.689
-36.6772
-36.6603
-36.639
-36.6157
-36.5938
-36.5757
-36.5623
-36.553
-36.547
-36.5433
-36.5412
-36.5401
-36.5397
-36.5396
-36.5398
-36.54
-36.5403
-36.5406
-36.5409
-36.5411
-36.5413
-36.5415
-36.5417
-36.5418
-36.542
-36.5421
-36.5422
-36.5422
-36.5423
-36.5424
-36.5424
-36.5425
-36.5425
-36.5426
-36.5426
-36.5427
-36.5427
-36.5427
-36.5428
-36.5428
-36.5428
-36.5429
-36.5429
-36.5429
-36.543
-36.543
-36.543
-36.5431
-36.5431
-36.5431
-36.5431
-36.5431
-36.5432
-36.5432
-36.5432
-36.5433
-36.5434
-36.5435
-36.5437
-36.6813
-36.6807
-36.6781
-36.6742
-36.6664
-36.6542
-36.6356
-36.6112
-36.5838
-36.5586
-36.5387
-36.5246
-36.5154
-36.5099
-36.5069
-36.5054
-36.5049
-36.505
-36.5053
-36.5058
-36.5063
-36.5068
-36.5073
-36.5077
-36.508
-36.5083
-36.5086
-36.5088
-36.509
-36.5092
-36.5093
-36.5094
-36.5095
-36.5096
-36.5097
-36.5097
-36.5098
-36.5099
-36.5099
-36.51
-36.51
-36.51
-36.5101
-36.5101
-36.5101
-36.5102
-36.5102
-36.5103
-36.5103
-36.5103
-36.5104
-36.5104
-36.5105
-36.5105
-36.5105
-36.5105
-36.5106
-36.5106
-36.5107
-36.5107
-36.5109
-36.5109
-36.5111
-36.5112
-36.6572
-36.657
-36.655
-36.6519
-36.6446
-36.6323
-36.6121
-36.5839
-36.5516
-36.5226
-36.5008
-36.4862
-36.4773
-36.4726
-36.4704
-36.4697
-36.4698
-36.4704
-36.4712
-36.472
-36.4728
-36.4735
-36.4741
-36.4746
-36.4751
-36.4754
-36.4758
-36.476
-36.4763
-36.4764
-36.4766
-36.4767
-36.4769
-36.477
-36.477
-36.4771
-36.4772
-36.4773
-36.4773
-36.4774
-36.4774
-36.4774
-36.4775
-36.4775
-36.4776
-36.4776
-36.4776
-36.4777
-36.4777
-36.4778
-36.4778
-36.4779
-36.4779
-36.478
-36.478
-36.478
-36.4781
-36.4781
-36.4782
-36.4783
-36.4785
-36.4785
-36.4787
-36.4787
-36.6332
-36.6335
-36.6321
-36.63
-36.6237
-36.6116
-36.5899
-36.5575
-36.519
-36.4855
-36.4618
-36.447
-36.4388
-36.4351
-36.4339
-36.434
-36.4349
-36.436
-36.4372
-36.4384
-36.4394
-36.4403
-36.4411
-36.4417
-36.4423
-36.4427
-36.4431
-36.4434
-36.4437
-36.4439
-36.4441
-36.4442
-36.4444
-36.4445
-36.4446
-36.4447
-36.4447
-36.4448
-36.4449
-36.4449
-36.445
-36.445
-36.445
-36.4451
-36.4451
-36.4452
-36.4452
-36.4453
-36.4453
-36.4454
-36.4454
-36.4455
-36.4455
-36.4456
-36.4456
-36.4457
-36.4457
-36.4458
-36.4459
-36.446
-36.4462
-36.4462
-36.4463
-36.4463
-36.6092
-36.61
-36.6096
-36.6087
-36.6038
-36.5925
-36.5696
-36.5322
-36.4857
-36.4471
-36.4217
-36.4071
-36.4
-36.3976
-36.3975
-36.3986
-36.4002
-36.4019
-36.4035
-36.405
-36.4063
-36.4074
-36.4083
-36.409
-36.4097
-36.4102
-36.4106
-36.411
-36.4113
-36.4115
-36.4117
-36.4119
-36.4121
-36.4122
-36.4123
-36.4124
-36.4125
-36.4125
-36.4126
-36.4127
-36.4127
-36.4128
-36.4128
-36.4128
-36.4129
-36.4129
-36.413
-36.413
-36.4131
-36.4131
-36.4132
-36.4132
-36.4133
-36.4134
-36.4134
-36.4135
-36.4136
-36.4137
-36.4138
-36.4139
-36.4141
-36.414
-36.4142
-36.4141
-36.5854
-36.5865
-36.5872
-36.5878
-36.5848
-36.5751
-36.5515
-36.5084
-36.4516
-36.407
-36.3804
-36.3665
-36.3609
-36.3601
-36.3613
-36.3634
-36.3658
-36.3681
-36.3701
-36.3719
-36.3735
-36.3747
-36.3758
-36.3767
-36.3774
-36.3779
-36.3784
-36.3788
-36.3792
-36.3794
-36.3797
-36.3798
-36.38
-36.3801
-36.3803
-36.3804
-36.3804
-36.3805
-36.3806
-36.3807
-36.3807
-36.3808
-36.3808
-36.3808
-36.3809
-36.3809
-36.381
-36.381
-36.3811
-36.3811
-36.3812
-36.3813
-36.3813
-36.3814
-36.3815
-36.3816
-36.3816
-36.3818
-36.3819
-36.382
-36.3823
-36.3821
-36.3822
-36.3821
-36.5616
-36.5631
-36.5651
-36.5673
-36.5668
-36.5595
-36.5361
-36.4867
-36.416
-36.365
-36.3379
-36.3253
-36.3218
-36.3228
-36.3254
-36.3287
-36.3318
-36.3346
-36.3371
-36.3392
-36.341
-36.3424
-36.3436
-36.3446
-36.3454
-36.346
-36.3465
-36.347
-36.3473
-36.3476
-36.3479
-36.3481
-36.3482
-36.3484
-36.3485
-36.3486
-36.3487
-36.3488
-36.3489
-36.3489
-36.349
-36.349
-36.3491
-36.3491
-36.3492
-36.3492
-36.3493
-36.3493
-36.3494
-36.3495
-36.3495
-36.3496
-36.3496
-36.3497
-36.3498
-36.3499
-36.35
-36.3502
-36.3503
-36.3504
-36.3507
-36.3505
-36.3505
-36.3504
-36.538
-36.5396
-36.5432
-36.5472
-36.5498
-36.5459
-36.5241
-36.4679
-36.3783
-36.3204
-36.2942
-36.2836
-36.2826
-36.2859
-36.29
-36.2944
-36.2984
-36.3017
-36.3045
-36.307
-36.309
-36.3106
-36.3119
-36.3129
-36.3138
-36.3145
-36.315
-36.3155
-36.3159
-36.3162
-36.3164
-36.3167
-36.3168
-36.317
-36.3171
-36.3172
-36.3173
-36.3174
-36.3175
-36.3176
-36.3177
-36.3177
-36.3177
-36.3178
-36.3178
-36.3179
-36.3179
-36.318
-36.3181
-36.3181
-36.3182
-36.3183
-36.3183
-36.3184
-36.3185
-36.3186
-36.3187
-36.3189
-36.3191
-36.3191
-36.3194
-36.3192
-36.3191
-36.3192
-36.5145
-36.5162
-36.5214
-36.5274
-36.5336
-36.5344
-36.5161
-36.4533
-36.3374
-36.2729
-36.2496
-36.2417
-36.2437
-36.2495
-36.2552
-36.2607
-36.2656
-36.2693
-36.2726
-36.2753
-36.2775
-36.2792
-36.2806
-36.2818
-36.2827
-36.2834
-36.284
-36.2845
-36.2849
-36.2852
-36.2855
-36.2858
-36.2859
-36.2861
-36.2862
-36.2864
-36.2865
-36.2866
-36.2866
-36.2867
-36.2868
-36.2868
-36.2869
-36.2869
-36.287
-36.287
-36.2871
-36.2871
-36.2872
-36.2873
-36.2873
-36.2874
-36.2875
-36.2875
-36.2877
-36.2878
-36.2879
-36.2881
-36.2883
-36.2883
-36.2886
-36.2884
-36.2883
-36.2885
-36.4912
-36.493
-36.4997
-36.5078
-36.5182
-36.525
-36.513
-36.4448
-36.2918
-36.2221
-36.2044
-36.1996
-36.2054
-36.2141
-36.2211
-36.2279
-36.2335
-36.2377
-36.2413
-36.2444
-36.2468
-36.2486
-36.2501
-36.2513
-36.2522
-36.253
-36.2536
-36.2542
-36.2546
-36.2549
-36.2552
-36.2555
-36.2556
-36.2558
-36.256
-36.2561
-36.2562
-36.2563
-36.2564
-36.2564
-36.2565
-36.2566
-36.2566
-36.2566
-36.2567
-36.2568
-36.2568
-36.2569
-36.257
-36.257
-36.2571
-36.2572
-36.2572
-36.2573
-36.2575
-36.2576
-36.2577
-36.258
-36.2582
-36.2581
-36.2584
-36.2583
-36.2581
-36.2585
-36.468
-36.47
-36.4782
-36.4885
-36.5034
-36.5177
-36.5154
-36.445
-36.2388
-36.1674
-36.1593
-36.1576
-36.1678
-36.1797
-36.188
-36.196
-36.2025
-36.2069
-36.2109
-36.2142
-36.2169
-36.2187
-36.2203
-36.2216
-36.2225
-36.2234
-36.224
-36.2246
-36.225
-36.2254
-36.2257
-36.2259
-36.2261
-36.2263
-36.2265
-36.2266
-36.2267
-36.2268
-36.2269
-36.2269
-36.2271
-36.2271
-36.2271
-36.2271
-36.2272
-36.2273
-36.2273
-36.2274
-36.2275
-36.2275
-36.2276
-36.2277
-36.2277
-36.2278
-36.228
-36.2281
-36.2283
-36.2285
-36.2287
-36.2287
-36.2289
-36.229
-36.2287
-36.2292
-36.445
-36.4473
-36.4567
-36.4693
-36.4889
-36.5119
-36.5239
-36.4579
-36.1748
-36.1085
-36.1149
-36.1159
-36.1312
-36.1467
-36.1559
-36.1652
-36.1726
-36.177
-36.1814
-36.1851
-36.1879
-36.1897
-36.1914
-36.1928
-36.1937
-36.1946
-36.1953
-36.1958
-36.1963
-36.1967
-36.197
-36.1972
-36.1974
-36.1976
-36.1978
-36.1979
-36.198
-36.1981
-36.1982
-36.1982
-36.1984
-36.1984
-36.1984
-36.1984
-36.1986
-36.1986
-36.1986
-36.1988
-36.1988
-36.1988
-36.199
-36.1991
-36.1991
-36.1991
-36.1994
-36.1995
-36.1996
-36.1999
-36.2001
-36.2001
-36.2003
-36.2005
-36.2001
-36.2006
-36.4221
-36.4249
-36.4352
-36.4501
-36.4743
-36.5071
-36.5387
-36.4889
-36.0941
-36.0452
-36.0724
-36.0742
-36.0957
-36.1153
-36.1248
-36.1354
-36.1437
-36.148
-36.1527
-36.1568
-36.1598
-36.1615
-36.1633
-36.1648
-36.1657
-36.1666
-36.1674
-36.1679
-36.1684
-36.1688
-36.1691
-36.1694
-36.1695
-36.1697
-36.1699
-36.17
-36.1701
-36.1703
-36.1703
-36.1704
-36.1706
-36.1706
-36.1706
-36.1706
-36.1707
-36.1707
-36.1707
-36.1709
-36.171
-36.171
-36.1712
-36.1712
-36.1712
-36.1713
-36.1715
-36.1717
-36.1718
-36.1721
-36.1723
-36.1723
-36.1724
-36.1728
-36.1725
-36.1727
-36.3992
-36.4029
-36.4136
-36.4305
-36.4592
-36.5022
-36.5589
-36.5457
-35.9886
-35.9781
-36.0332
-36.0322
-36.0613
-36.0854
-36.0943
-36.1065
-36.116
-36.1197
-36.1249
-36.1292
-36.1325
-36.134
-36.1359
-36.1375
-36.1384
-36.1393
-36.1401
-36.1407
-36.1411
-36.1415
-36.1418
-36.1422
-36.1423
-36.1425
-36.1428
-36.1428
-36.1429
-36.1431
-36.1431
-36.1431
-36.1434
-36.1434
-36.1434
-36.1433
-36.1436
-36.1436
-36.1435
-36.1438
-36.1438
-36.1437
-36.1441
-36.1441
-36.144
-36.1441
-36.1444
-36.1445
-36.1446
-36.145
-36.1451
-36.1452
-36.1452
-36.1457
-36.1455
-36.1453
-36.3763
-36.3812
-36.3918
-36.4105
-36.4429
-36.4961
-36.5829
-36.6394
-35.8469
-35.9083
-35.9991
-35.9891
-36.028
-36.0573
-36.0642
-36.0784
-36.0891
-36.0918
-36.0976
-36.1023
-36.1058
-36.107
-36.1091
-36.1108
-36.1115
-36.1126
-36.1134
-36.1139
-36.1144
-36.1148
-36.1151
-36.1154
-36.1156
-36.1157
-36.1161
-36.1161
-36.1161
-36.1165
-36.1164
-36.1164
-36.1168
-36.1167
-36.1166
-36.1166
-36.1169
-36.1168
-36.1168
-36.1172
-36.1171
-36.117
-36.1174
-36.1174
-36.1173
-36.1173
-36.1178
-36.1178
-36.1179
-36.1184
-36.1184
-36.1185
-36.1186
-36.1191
-36.119
-36.1183
-36.3535
-36.3596
-36.3699
-36.3898
-36.4253
-36.4874
-36.6075
-36.7853
-35.6534
-35.8386
-35.9724
-35.9439
-35.9961
-36.0311
-36.0342
-36.051
-36.0632
-36.0641
-36.0708
-36.0759
-36.0797
-36.0803
-36.0827
-36.0846
-36.0851
-36.0862
-36.0871
-36.0876
-36.0881
-36.0885
-36.0888
-36.0892
-36.0893
-36.0894
-36.0899
-36.0898
-36.0898
-36.0903
-36.0902
-36.09
-36.0906
-36.0905
-36.0904
-36.0902
-36.0908
-36.0906
-36.0904
-36.091
-36.0908
-36.0906
-36.0913
-36.0911
-36.091
-36.091
-36.0916
-36.0916
-36.0916
-36.0923
-36.0921
-36.0923
-36.0924
-36.0928
-36.0929
-36.0918
-36.3307
-36.3381
-36.3485
-36.369
-36.4065
-36.4755
-36.6275
-37.0052
-35.3872
-35.7748
-35.9567
-35.8954
-35.9664
-36.0078
-36.0045
-36.0248
-36.0389
-36.0371
-36.0451
-36.0505
-36.0547
-36.0545
-36.0573
-36.0594
-36.0596
-36.0609
-36.0618
-36.0622
-36.0628
-36.0632
-36.0634
-36.0639
-36.064
-36.064
-36.0646
-36.0645
-36.0643
-36.0651
-36.0648
-36.0646
-36.0654
-36.0652
-36.065
-36.0648
-36.0656
-36.0653
-36.0649
-36.0658
-36.0655
-36.0652
-36.0661
-36.0658
-36.0657
-36.0655
-36.0664
-36.0663
-36.0662
-36.0671
-36.0667
-36.067
-36.0673
-36.0672
-36.0677
-36.0665
-36.3084
-36.3166
-36.3274
-36.3482
-36.3867
-36.4593
-36.634
-37.3274
-35.0199
-35.7248
-35.9551
-35.8415
-35.9394
-35.9879
-35.9746
-36
-36.0164
-36.0106
-36.0205
-36.0261
-36.0309
-36.0295
-36.0329
-36.0352
-36.0349
-36.0365
-36.0375
-36.0378
-36.0384
-36.0388
-36.039
-36.0396
-36.0396
-36.0395
-36.0404
-36.0401
-36.0398
-36.0408
-36.0405
-36.04
-36.0413
-36.0408
-36.0406
-36.0402
-36.0414
-36.0409
-36.0404
-36.0416
-36.0411
-36.0406
-36.0419
-36.0415
-36.0413
-36.041
-36.0422
-36.0419
-36.0416
-36.0429
-36.0423
-36.0425
-36.0433
-36.0426
-36.0435
-36.0425
)
;

boundaryField
{
    left
    {
        type            calculated;
        value           nonuniform List<scalar> 
32
(
-36.9604
-36.9561
-36.9479
-36.9365
-36.9223
-36.9057
-36.8872
-36.8672
-36.8459
-36.8236
-36.8007
-36.7772
-36.7534
-36.7294
-36.7054
-36.6813
-36.6572
-36.6332
-36.6092
-36.5854
-36.5616
-36.538
-36.5145
-36.4912
-36.468
-36.445
-36.4221
-36.3992
-36.3763
-36.3535
-36.3307
-36.3084
)
;
    }
    right
    {
        type            calculated;
        value           nonuniform List<scalar> 
32
(
-36.8774
-36.872
-36.8617
-36.8473
-36.8293
-36.8082
-36.7845
-36.7585
-36.7308
-36.7016
-36.6713
-36.6401
-36.6083
-36.5761
-36.5437
-36.5112
-36.4787
-36.4463
-36.4141
-36.3821
-36.3504
-36.3192
-36.2885
-36.2585
-36.2292
-36.2006
-36.1727
-36.1453
-36.1183
-36.0918
-36.0665
-36.0425
)
;
    }
    interface
    {
        type            calculated;
        value           nonuniform List<scalar> 
64
(
-36.2975
-36.3059
-36.3169
-36.3377
-36.3764
-36.45
-36.6325
-37.518
-34.8068
-35.7044
-35.9582
-35.8127
-35.9266
-35.9788
-35.9594
-35.9878
-36.0055
-35.9973
-36.0084
-36.014
-36.0192
-36.0171
-36.0208
-36.0233
-36.0227
-36.0244
-36.0255
-36.0257
-36.0264
-36.0268
-36.0269
-36.0276
-36.0276
-36.0274
-36.0284
-36.0281
-36.0277
-36.0289
-36.0284
-36.0279
-36.0293
-36.0288
-36.0286
-36.0281
-36.0294
-36.0289
-36.0282
-36.0297
-36.0291
-36.0285
-36.03
-36.0295
-36.0293
-36.0288
-36.0303
-36.0299
-36.0295
-36.031
-36.0302
-36.0304
-36.0314
-36.0304
-36.0315
-36.0306
)
;
    }
    bottom
    {
        type            calculated;
        value           nonuniform List<scalar> 
64
(
-36.9615
-36.9606
-36.9589
-36.9563
-36.953
-36.949
-36.9445
-36.9396
-36.9344
-36.929
-36.9238
-36.9186
-36.9137
-36.9091
-36.905
-36.9012
-36.8978
-36.8949
-36.8923
-36.8901
-36.8883
-36.8867
-36.8853
-36.8842
-36.8833
-36.8825
-36.8819
-36.8814
-36.881
-36.8806
-36.8803
-36.8801
-36.8799
-36.8798
-36.8796
-36.8795
-36.8795
-36.8794
-36.8794
-36.8793
-36.8793
-36.8793
-36.8793
-36.8793
-36.8793
-36.8793
-36.8792
-36.8792
-36.8792
-36.8792
-36.8792
-36.8792
-36.8792
-36.8791
-36.8791
-36.879
-36.879
-36.879
-36.8789
-36.8789
-36.8788
-36.8788
-36.8788
-36.8788
)
;
    }
    defaultFaces
    {
        type            empty;
    }
}


// ************************************************************************* //
