/*--------------------------------*- C++ -*----------------------------------*\
| =========                 |                                                 |
| \\      /  F ield         | OpenFOAM: The Open Source CFD Toolbox           |
|  \\    /   O peration     | Version:  5.x                                   |
|   \\  /    A nd           | Web:      www.OpenFOAM.org                      |
|    \\/     M anipulation  |                                                 |
\*---------------------------------------------------------------------------*/
FoamFile
{
    version     2.0;
    format      ascii;
    class       volScalarField;
    location    "7.7";
    object      gradTx;
}
// * * * * * * * * * * * * * * * * * * * * * * * * * * * * * * * * * * * * * //

dimensions      [0 -1 0 1 0 0 0];

internalField   nonuniform List<scalar> 
2048
(
0.0221569
0.0662239
0.109527
0.15149
0.191454
0.228692
0.262443
0.29198
0.316679
0.336091
0.349986
0.358371
0.361475
0.359718
0.35366
0.343951
0.331284
0.316353
0.299823
0.282296
0.264303
0.246285
0.228597
0.211506
0.195204
0.179816
0.165409
0.152007
0.139594
0.128129
0.117548
0.107778
0.098741
0.09036
0.0825669
0.0753028
0.0685197
0.0621805
0.0562573
0.05073
0.0455844
0.04081
0.0363985
0.0323415
0.0286293
0.0252502
0.02219
0.0194322
0.0169583
0.0147482
0.0127811
0.0110357
0.00949047
0.00812436
0.00691683
0.00584816
0.00489957
0.00405337
0.003293
0.00260295
0.00196876
0.00137688
0.000814528
0.000269591
0.0657059
0.196407
0.324902
0.449498
0.568246
0.678959
0.779339
0.867172
0.940561
0.998139
1.03921
1.06381
1.07264
1.06698
1.04853
1.01926
0.981236
0.936549
0.887179
0.834928
0.781369
0.727812
0.675298
0.624615
0.57632
0.530772
0.488164
0.448555
0.411895
0.378052
0.346834
0.318017
0.291362
0.266642
0.243653
0.222218
0.202196
0.183479
0.165985
0.149656
0.134453
0.120346
0.107311
0.0953251
0.0843605
0.0743827
0.0653496
0.0572121
0.0499149
0.0433987
0.0376012
0.0324588
0.0279082
0.0238866
0.0203331
0.0171893
0.0143996
0.0119118
0.00967672
0.00764871
0.00578505
0.00404579
0.0023934
0.000792184
0.107888
0.322565
0.533805
0.738897
0.934636
1.11735
1.28312
1.42813
1.54912
1.64372
1.71076
1.75032
1.76366
1.75299
1.72121
1.67165
1.6078
1.53316
1.45103
1.36438
1.27582
1.18749
1.10108
1.01785
0.938692
0.864156
0.794535
0.729903
0.670158
0.615061
0.564279
0.517425
0.474096
0.433908
0.396519
0.361639
0.329041
0.298548
0.270033
0.243406
0.218607
0.195593
0.17433
0.154783
0.136909
0.120652
0.105945
0.0927044
0.0808399
0.0702528
0.0608402
0.0524976
0.0451202
0.0386052
0.0328526
0.0277664
0.0232558
0.0192351
0.0156244
0.0123492
0.0093399
0.00653169
0.00386415
0.00127913
0.148987
0.445584
0.737824
1.02211
1.29401
1.54829
1.77922
1.98118
2.14931
2.28012
2.37194
2.42494
2.44107
2.42359
2.37677
2.30538
2.21444
2.10887
1.99334
1.87201
1.74849
1.62574
1.50604
1.39108
1.28202
1.17956
1.08406
0.995569
0.913912
0.838721
0.769499
0.705676
0.646669
0.591926
0.540965
0.493388
0.448884
0.407219
0.368226
0.331793
0.297847
0.266339
0.237232
0.210484
0.186041
0.163828
0.14375
0.125694
0.109529
0.0951204
0.0823231
0.0709924
0.060983
0.0521527
0.0443633
0.0374826
0.0313854
0.0259541
0.0210795
0.0166596
0.0125995
0.00881083
0.00521274
0.00172587
0.189159
0.565978
0.937951
1.30077
1.64882
1.97514
2.27196
2.53145
2.74685
2.91337
3.02874
3.0934
3.1101
3.08344
3.01919
2.92377
2.80379
2.66572
2.51559
2.35882
2.20001
2.04289
1.89029
1.74426
1.60615
1.47677
1.35649
1.2453
1.14292
1.04883
0.962331
0.882652
0.808999
0.740643
0.676956
0.617434
0.561692
0.509449
0.460508
0.414745
0.372082
0.332475
0.295892
0.262293
0.231615
0.203767
0.178626
0.156044
0.135855
0.117881
0.101939
0.0878425
0.0754063
0.0644492
0.0547957
0.0462779
0.0387377
0.0320269
0.0260079
0.020553
0.0155436
0.0108694
0.00643101
0.00212963
0.228441
0.683909
1.13462
1.5758
2.00067
2.4004
2.76472
3.08315
3.34654
3.54849
3.68617
3.76035
3.77496
3.73617
3.65154
3.52932
3.37784
3.20518
3.01885
2.82552
2.63081
2.43918
2.25395
2.07742
1.91107
1.75573
1.61174
1.47901
1.35712
1.24535
1.14279
1.0484
0.96117
0.880158
0.804594
0.733873
0.667547
0.6053
0.54692
0.492278
0.441305
0.393972
0.350263
0.310148
0.273562
0.240395
0.210496
0.183683
0.159748
0.138472
0.11963
0.102995
0.0883431
0.0754536
0.0641144
0.0541228
0.0452883
0.0374333
0.0303936
0.0240173
0.0181634
0.0127013
0.00751549
0.00248926
0.266755
0.799202
1.32772
1.84742
2.35043
2.82579
3.26022
3.63984
3.9525
4.18984
4.34841
4.42965
4.43898
4.38459
4.27613
4.12386
3.93798
3.72828
3.5038
3.27254
3.04114
2.81476
2.5971
2.39062
2.19682
2.01649
1.84988
1.69678
1.5566
1.42842
1.31104
1.20313
1.1034
1.01069
0.924091
0.842897
0.766619
0.694918
0.62758
0.564482
0.505578
0.450865
0.400359
0.354047
0.311867
0.273693
0.239343
0.208592
0.181191
0.156876
0.135381
0.116437
0.0997816
0.0851565
0.0723124
0.0610121
0.0510337
0.0421714
0.0342358
0.0270522
0.0204591
0.014307
0.00846654
0.00280488
0.303908
0.91135
1.51666
2.11523
2.69826
3.25238
3.76054
4.20456
4.56839
4.84124
5.0191
5.10445
5.10479
5.0308
4.89459
4.70866
4.48516
4.23566
3.97083
3.70007
3.4311
3.1697
2.91983
2.68399
2.46357
2.25922
2.07107
1.89877
1.74156
1.59825
1.46734
1.34714
1.23601
1.13257
1.03575
0.94478
0.859147
0.77851
0.702664
0.631504
0.565015
0.503239
0.446237
0.394029
0.346561
0.303687
0.265188
0.230793
0.200204
0.173112
0.149208
0.128184
0.109738
0.0935733
0.0794046
0.0669601
0.0559873
0.0462534
0.0375452
0.0296671
0.0224381
0.015692
0.00928749
0.0030776
0.339603
1.01954
1.70031
2.37819
3.04368
3.68062
4.26736
4.78005
5.19758
5.50617
5.70138
5.78733
5.77437
5.67626
5.50801
5.28449
5.0199
4.72763
4.42005
4.10812
3.80066
3.50402
3.22226
2.95771
2.71154
2.48418
2.27558
2.08526
1.91227
1.75519
1.61208
1.48084
1.35943
1.2462
1.13994
1.03985
0.945422
0.856331
0.772394
0.693534
0.619772
0.551214
0.48799
0.43017
0.377708
0.330437
0.288089
0.25034
0.216839
0.187229
0.161157
0.138277
0.118249
0.100739
0.0854233
0.0719965
0.0601756
0.0497026
0.0403419
0.0318784
0.0241135
0.0168656
0.009984
0.0033093
0.373445
1.12266
1.87709
2.63468
3.38553
4.11045
4.78197
5.36885
5.84332
6.18787
6.398
6.48036
6.44909
6.32186
6.11695
5.85174
5.54246
5.20427
4.85139
4.49652
4.14969
3.8177
3.50449
3.21203
2.94106
2.69171
2.46375
2.25658
2.0691
1.8996
1.7457
1.60472
1.47414
1.35204
1.23708
1.12848
1.02577
0.928669
0.837027
0.750791
0.670033
0.594938
0.525734
0.462564
0.405397
0.354027
0.30813
0.267316
0.231174
0.199298
0.171293
0.146775
0.125369
0.106703
0.0904144
0.0761623
0.0636349
0.0525502
0.0426524
0.0337081
0.0255025
0.0178403
0.0105634
0.00350239
0.404953
1.21933
2.04498
2.88243
3.72202
4.54123
5.30538
5.97347
6.50885
6.88948
7.1114
7.1851
7.12979
6.96797
6.72156
6.4105
6.05287
5.6655
5.26461
4.86495
4.47796
4.11071
3.76672
3.44728
3.15255
2.88226
2.63601
2.41313
2.21243
2.03193
1.86871
1.71934
1.58072
1.45061
1.32764
1.21106
1.10053
0.99583
0.896837
0.803523
0.716004
0.634573
0.559599
0.491325
0.429732
0.374564
0.325417
0.281823
0.243305
0.209408
0.179695
0.153751
0.131165
0.111526
0.0944331
0.0795072
0.0664085
0.0548335
0.0445083
0.0351824
0.0266255
0.0186304
0.0110341
0.00365965
0.433574
1.30796
2.20153
3.11864
4.05069
4.97179
5.83837
6.59654
7.19762
7.61408
7.84374
7.90266
7.81674
7.61443
7.32159
6.96056
6.551
6.11114
5.65933
5.213
4.78521
4.38306
4.00917
3.66389
3.34653
3.05635
2.79284
2.55534
2.34266
2.15263
1.98165
1.82531
1.67975
1.54246
1.41207
1.28799
1.17005
1.05813
0.952114
0.851992
0.757911
0.670294
0.58972
0.516571
0.450833
0.392167
0.34007
0.29398
0.253344
0.21766
0.186456
0.159286
0.135709
0.115277
0.0975424
0.0820868
0.0685445
0.0565935
0.045944
0.0363295
0.0275048
0.0192515
0.0114054
0.00378407
0.458709
1.38679
2.34395
3.33989
4.36837
5.40038
6.38159
7.24094
7.91336
8.36477
8.59684
8.63363
8.50965
8.26061
7.91648
7.50158
7.03672
6.54099
6.0351
5.54008
5.0711
4.63475
4.23218
3.86239
3.52362
3.21458
2.93477
2.68364
2.4602
2.26217
2.08514
1.92331
1.7719
1.62817
1.49086
1.35966
1.23467
1.11588
1.00316
0.896476
0.795989
0.702279
0.61623
0.538424
0.468826
0.406971
0.352228
0.303918
0.261414
0.224167
0.191674
0.163467
0.139081
0.11803
0.0998098
0.0839608
0.0700938
0.0578733
0.0469958
0.0371798
0.0281639
0.0197203
0.0116866
0.00387863
0.479738
1.45394
2.46919
3.54226
4.67117
5.8246
6.93551
7.91002
8.66031
9.14464
9.37224
9.37811
9.20761
8.90542
8.50536
8.03307
7.50993
6.95492
6.39136
5.84551
5.33525
4.86588
4.43617
4.04344
3.68456
3.35763
3.06239
2.79852
2.5654
2.36099
2.1798
2.01408
1.85786
1.70832
1.56448
1.42644
1.29473
1.16939
1.05026
0.937268
0.830489
0.730701
0.639253
0.557002
0.483844
0.419118
0.362035
0.311782
0.267645
0.229044
0.195453
0.166384
0.141363
0.11986
0.101306
0.0851912
0.0711087
0.0587163
0.0477004
0.0377641
0.0286273
0.0200533
0.0118869
0.00394622
0.496053
1.50753
2.57399
3.72134
4.95437
6.24126
7.50048
8.60782
9.44336
9.95681
10.1711
10.1356
9.90911
9.54734
9.08717
8.55446
7.9707
7.35297
6.72746
6.12837
5.57728
5.07665
4.62167
4.20783
3.8302
3.48624
3.17631
2.90042
2.65859
2.44949
2.26631
2.09844
1.93833
1.78349
1.63338
1.48867
1.35051
1.21896
1.09372
0.974673
0.861675
0.755728
0.658892
0.572419
0.496027
0.42876
0.369648
0.317721
0.272172
0.232413
0.197896
0.168126
0.142634
0.120848
0.102106
0.0858408
0.0716408
0.0591655
0.0480941
0.0381134
0.0289196
0.020267
0.012015
0.00398943
0.507093
1.54576
2.65509
3.87234
5.21245
6.64624
8.07666
9.33938
10.2683
10.8042
10.994
10.9052
10.6119
10.1845
9.66069
9.06512
8.41934
7.73544
7.04261
6.38752
5.7968
5.26741
4.78933
4.35648
3.9615
3.60117
3.27721
2.9898
2.73996
2.52799
2.34543
2.17728
2.01403
1.85426
1.69801
1.54663
1.40229
1.26488
1.13383
1.00901
0.889833
0.777509
0.675226
0.58478
0.505522
0.436052
0.375231
0.321893
0.275134
0.234395
0.199111
0.16878
0.142974
0.121071
0.102284
0.0859724
0.0717406
0.0592619
0.0482117
0.0382588
0.0290659
0.0203773
0.0120786
0.00401039
0.512382
1.56704
2.7093
3.99016
5.43899
7.03424
8.6639
10.1111
11.1422
11.6894
11.8412
11.6854
11.313
10.8145
10.2247
9.56431
8.85661
8.10312
7.33582
6.62142
5.99345
5.43873
4.93988
4.49043
4.07958
3.70321
3.3658
3.06716
2.80959
2.59671
2.41798
2.25161
2.08568
1.92118
1.75875
1.60054
1.45031
1.30741
1.17083
1.04064
0.915282
0.796169
0.688288
0.594184
0.512487
0.441157
0.378952
0.324462
0.276664
0.23511
0.199201
0.168427
0.142453
0.12061
0.101917
0.0856472
0.0714555
0.0590441
0.0480859
0.0382308
0.0290913
0.020399
0.0120838
0.00401058
0.511562
1.57004
2.73373
4.06963
5.62666
7.39848
9.26153
10.9314
12.0736
12.6141
12.7121
12.4743
12.0083
11.4351
10.7779
10.051
9.28381
8.45746
7.60575
6.828
6.16702
5.59152
5.07407
4.61089
4.18568
3.79309
3.44284
3.13302
2.86734
2.65566
2.48491
2.32261
2.15392
1.98477
1.81601
1.65053
1.49479
1.34685
1.20496
1.06993
0.938386
0.811794
0.698057
0.600725
0.517099
0.444236
0.380986
0.325596
0.276893
0.234678
0.198272
0.16714
0.141138
0.119544
0.101087
0.0849239
0.0708294
0.0585474
0.0477466
0.03806
0.0290217
0.0203459
0.012035
0.00399065
0.504427
1.55387
2.72596
4.10564
5.76727
7.7303
9.86793
11.8113
13.073
13.5784
13.6057
13.2699
12.6927
12.0438
11.3195
10.5238
9.70301
8.80088
7.85051
7.00442
6.31754
5.72714
5.19258
4.71923
4.28123
3.87139
3.50921
3.18803
2.9128
2.70464
2.5474
2.39167
2.21926
2.04551
1.87017
1.69657
1.53591
1.38346
1.23636
1.09731
0.959587
0.824416
0.704435
0.604504
0.519566
0.445444
0.38151
0.325471
0.275939
0.233216
0.196429
0.164981
0.139082
0.117958
0.099876
0.0838568
0.0699015
0.0578032
0.0472196
0.0377769
0.0288841
0.0202295
0.011934
0.00395025
0.490943
1.51811
2.68419
4.09346
5.85189
8.01875
10.4799
12.7654
14.1537
14.5795
14.5202
14.0707
13.3589
12.6383
11.8493
10.98
10.1173
9.13726
8.06731
7.14682
6.44552
5.84759
5.2958
4.81698
4.36796
3.93838
3.5659
3.23303
2.94519
2.74306
2.6069
2.46046
2.28196
2.10386
1.92168
1.73846
1.57388
1.4176
1.26505
1.12328
0.979444
0.833977
0.707221
0.605641
0.520138
0.444916
0.380707
0.324278
0.273902
0.230835
0.193784
0.161998
0.136326
0.115937
0.0983761
0.0824936
0.0687055
0.0568399
0.046526
0.0374128
0.0287078
0.0200593
0.0117795
0.00388782
0.471261
1.46288
2.60747
4.02904
5.87104
8.25009
11.0917
13.8134
15.3328
15.6102
15.4537
14.8761
13.9974
13.2172
12.368
11.4153
10.5313
9.47253
8.25204
7.24984
6.55228
5.9558
5.38346
4.90596
4.44795
3.99381
3.61412
3.26925
2.9632
2.76983
2.66536
2.5311
2.34187
2.16028
1.9711
1.7757
1.60894
1.44968
1.29087
1.14842
0.998682
0.840293
0.70608
0.604299
0.519132
0.442747
0.378765
0.322221
0.270849
0.227649
0.190459
0.158222
0.132892
0.113575
0.0966869
0.0808719
0.0672697
0.0556827
0.0456804
0.0370004
0.0285251
0.0198409
0.0115665
0.00380056
0.445716
1.3889
2.4958
3.9093
5.81509
8.40735
11.6934
14.9819
16.632
16.6558
16.4047
15.6878
14.5943
13.7803
12.8784
11.822
10.9513
9.8155
8.39851
7.30623
6.6404
6.05594
5.45418
4.98834
4.52392
4.03652
3.65541
3.29853
2.96485
2.78314
2.72539
2.60625
2.39811
2.21528
2.01923
1.80735
1.64144
1.48031
1.3133
1.17348
1.01828
0.842993
0.700508
0.600721
0.516958
0.438959
0.375879
0.319541
0.2668
0.223771
0.186594
0.153654
0.128775
0.11098
0.094922
0.0790137
0.0656165
0.0543556
0.044688
0.0365754
0.028374
0.0195755
0.0112859
0.00368449
0.414813
1.29744
2.35023
3.73258
5.67476
8.47003
12.2684
16.3064
18.08
17.6905
17.3729
16.5118
15.1298
14.3299
13.386
12.1874
11.3865
10.179
8.49752
7.30623
6.71438
6.15388
5.50462
5.06695
4.59946
4.06393
3.69185
3.32359
2.94721
2.78019
2.79055
2.68937
2.44868
2.26955
2.06725
1.83182
1.67191
1.51033
1.33132
1.19939
1.03956
0.84143
0.689783
0.595275
0.514152
0.433452
0.372268
0.316523
0.261701
0.219323
0.182362
0.148267
0.123942
0.108279
0.0932141
0.0769179
0.0637641
0.0528839
0.0435416
0.0361781
0.0282996
0.019257
0.0109242
0.00353463
0.379205
1.19029
2.17291
3.49887
5.44193
8.414
12.7905
17.8348
19.7147
18.6717
18.3616
17.3599
15.5745
14.8721
13.9008
12.4909
11.8497
10.5815
8.53552
7.23693
6.7815
6.25781
5.5284
5.14557
4.67958
4.07124
3.72624
3.3485
2.90614
2.75687
2.86577
2.78499
2.48993
2.32413
2.11702
1.84648
1.70125
1.54107
1.3431
1.2274
1.06434
0.834564
0.672921
0.588521
0.511421
0.425929
0.368186
0.313532
0.255386
0.214444
0.177984
0.141986
0.118318
0.105625
0.0917223
0.0745492
0.0617286
0.0512974
0.042216
0.0358558
0.0283577
0.0188701
0.0104633
0.00334549
0.339657
1.06967
1.96704
3.21014
5.11047
8.21193
13.2192
19.6309
21.587
19.5324
19.3802
18.2538
15.8853
15.419
14.4395
12.6998
12.3589
11.0485
8.49284
7.08151
6.85291
6.37894
5.51449
5.22955
4.77124
4.05039
3.7626
3.37916
2.83587
2.70727
2.95776
2.89909
2.51572
2.38069
2.17131
1.84726
1.73089
1.57446
1.34567
1.25919
1.09509
0.820797
0.648631
0.581293
0.509699
0.415803
0.363956
0.311042
0.247528
0.209304
0.173748
0.134675
0.11178
0.103214
0.0906406
0.0718227
0.0595286
0.0496365
0.0406603
0.0356663
0.0286183
0.0183855
0.00988166
0.0031118
0.297006
0.938123
1.73672
2.87052
4.67737
7.83443
13.4934
21.7793
23.7652
20.1716
20.4485
19.2287
15.9986
15.9916
15.0282
12.7643
12.9395
11.6156
8.34138
6.81854
6.94491
6.53253
5.44515
5.32662
4.88427
3.98858
3.80661
3.42393
2.72859
2.62318
3.07561
3.03959
2.51636
2.44197
2.23432
1.82792
1.7631
1.61339
1.33438
1.2971
1.13515
0.797759
0.615268
0.574794
0.510209
0.402055
0.360015
0.309685
0.23757
0.20413
0.170037
0.126119
0.104142
0.101296
0.0902091
0.0685837
0.057192
0.0479589
0.0387875
0.0356827
0.02917
0.0177545
0.00915494
0.00282936
0.252118
0.798399
1.48683
2.48625
4.14382
7.25226
13.5233
24.3907
26.3414
20.4406
21.6024
20.3386
15.822
16.6237
15.7061
12.6104
13.6274
12.3302
8.0417
6.42125
7.08052
6.73909
5.2932
5.44808
5.03245
3.86637
3.86645
3.49439
2.57384
2.49346
3.23149
3.21703
2.4773
2.51236
2.31214
1.77923
1.80142
1.66205
1.3022
1.34438
1.18898
0.762034
0.570809
0.570711
0.514551
0.383063
0.356979
0.310314
0.224628
0.199241
0.167358
0.115998
0.0951454
0.10019
0.0907277
0.0645807
0.0547666
0.0463485
0.0364603
0.035999
0.0301259
0.0169024
0.00825872
0.00249617
0.20585
0.653285
1.22271
2.06559
3.5163
6.43985
13.1803
27.6089
29.4398
20.1269
22.9019
21.6631
15.2231
17.3672
16.5304
12.1307
14.4722
13.2555
7.53942
5.85703
7.29111
7.02591
5.01846
5.61034
5.23481
3.65522
3.95376
3.60611
2.35793
2.30324
3.4414
3.44535
2.37731
2.59868
2.41347
1.6878
1.85111
1.72641
1.23893
1.40556
1.26241
0.708814
0.51284
0.57134
0.524793
0.35638
0.355739
0.314071
0.207377
0.19509
0.16637
0.103852
0.0844488
0.100305
0.0925722
0.0594316
0.0523346
0.0449269
0.0334731
0.0367391
0.0316289
0.0157181
0.00717179
0.00211341
0.159009
0.505493
0.949915
1.61839
2.80733
5.38078
12.2839
31.6177
33.2265
18.9332
24.4413
23.3141
14.0157
18.2986
17.5821
11.1736
15.5431
14.473
6.76089
5.08707
7.61812
7.42899
4.56357
5.83704
5.51735
3.31446
4.08502
3.77952
2.06323
2.03315
3.72599
3.74294
2.18636
2.71129
2.55032
1.53464
1.91993
1.81477
1.13007
1.48696
1.36297
0.631483
0.438591
0.579709
0.543599
0.318461
0.357586
0.322472
0.1839
0.192335
0.167924
0.0890503
0.0716129
0.102159
0.0962142
0.0525816
0.0500326
0.0438665
0.0295284
0.0380665
0.0338596
0.0140429
0.005881
0.00168627
0.112328
0.357542
0.673892
1.15558
2.03575
4.07531
10.5863
36.6494
37.9227
16.4529
26.362
25.4454
11.9429
19.5273
18.9727
9.52965
16.935
16.0862
5.60818
4.06651
8.11474
7.99538
3.84875
6.16153
5.91485
2.78757
4.2833
4.04073
1.66742
1.65839
4.11142
4.13389
1.86303
2.86534
2.73896
1.29347
2.01889
1.93845
0.955558
1.59731
1.50021
0.521122
0.345007
0.599693
0.574362
0.264334
0.36437
0.3375
0.151512
0.191922
0.173092
0.0707423
0.0560943
0.1064
0.102245
0.0432527
0.0480765
0.0434045
0.0242095
0.0401981
0.0370428
0.0116559
0.00438779
0.00122413
0.0664435
0.211663
0.399713
0.688372
1.22624
2.55051
7.75421
42.9937
43.8196
12.1413
28.868
28.2615
8.65719
21.2053
20.8519
6.916
18.7763
18.2242
3.95341
2.74499
8.84728
8.78598
2.76586
6.63006
6.47305
1.99792
4.58036
4.42224
1.14276
1.14781
4.63027
4.64953
1.3515
3.08243
3.00092
0.928631
2.16335
2.11252
0.688238
1.74851
1.68597
0.365948
0.228882
0.636115
0.621381
0.187225
0.378702
0.361709
0.106544
0.195188
0.183198
0.047813
0.0372385
0.113821
0.111402
0.0303852
0.0467931
0.0438598
0.0169469
0.0434201
0.0414558
0.00825646
0.00271648
0.000739975
0.0218854
0.0697468
0.131834
0.227511
0.407672
0.87307
3.34792
51.0061
51.2961
5.28164
32.2443
32.0285
3.69746
23.5394
23.4168
2.95832
21.2387
21.0443
1.63255
1.06798
9.89624
9.87887
1.17154
7.30543
7.25096
0.843812
5.01937
4.96354
0.455355
0.462973
5.32221
5.33015
0.57804
3.39249
3.36396
0.392801
2.37416
2.35662
0.292154
1.95658
1.9347
0.150688
0.0870645
0.6948
0.690057
0.0781205
0.404194
0.398323
0.0441069
0.204
0.199837
0.0188303
0.0142795
0.125384
0.124601
0.0125704
0.0466583
0.0456489
0.00698077
0.0481076
0.0474358
0.00344518
0.000924656
0.000248557
)
;

boundaryField
{
    left
    {
        type            calculated;
        value           uniform 0;
    }
    right
    {
        type            calculated;
        value           uniform 0;
    }
    interface
    {
        type            calculated;
        value           nonuniform List<scalar> 
64
(
0.0218854
0.0697468
0.131834
0.227511
0.407672
0.87307
3.34792
51.0061
51.2961
5.28164
32.2443
32.0285
3.69746
23.5394
23.4168
2.95832
21.2387
21.0443
1.63255
1.06798
9.89624
9.87887
1.17154
7.30543
7.25096
0.843812
5.01937
4.96354
0.455355
0.462973
5.32221
5.33015
0.57804
3.39249
3.36396
0.392801
2.37416
2.35662
0.292154
1.95658
1.9347
0.150688
0.0870645
0.6948
0.690057
0.0781205
0.404194
0.398323
0.0441069
0.204
0.199837
0.0188303
0.0142795
0.125384
0.124601
0.0125704
0.0466583
0.0456489
0.00698077
0.0481076
0.0474358
0.00344518
0.000924656
0.000248557
)
;
    }
    bottom
    {
        type            calculated;
        value           nonuniform List<scalar> 
64
(
0.0221569
0.0662239
0.109527
0.15149
0.191454
0.228692
0.262443
0.29198
0.316679
0.336091
0.349986
0.358371
0.361475
0.359718
0.35366
0.343951
0.331284
0.316353
0.299823
0.282296
0.264303
0.246285
0.228597
0.211506
0.195204
0.179816
0.165409
0.152007
0.139594
0.128129
0.117548
0.107778
0.098741
0.09036
0.0825669
0.0753028
0.0685197
0.0621805
0.0562573
0.05073
0.0455844
0.04081
0.0363985
0.0323415
0.0286293
0.0252502
0.02219
0.0194322
0.0169583
0.0147482
0.0127811
0.0110357
0.00949047
0.00812436
0.00691683
0.00584816
0.00489957
0.00405337
0.003293
0.00260295
0.00196876
0.00137688
0.000814528
0.000269591
)
;
    }
    defaultFaces
    {
        type            empty;
    }
}


// ************************************************************************* //
