/*--------------------------------*- C++ -*----------------------------------*\
| =========                 |                                                 |
| \\      /  F ield         | OpenFOAM: The Open Source CFD Toolbox           |
|  \\    /   O peration     | Version:  5.x                                   |
|   \\  /    A nd           | Web:      www.OpenFOAM.org                      |
|    \\/     M anipulation  |                                                 |
\*---------------------------------------------------------------------------*/
FoamFile
{
    version     2.0;
    format      ascii;
    class       volScalarField;
    location    "7.7";
    object      T;
}
// * * * * * * * * * * * * * * * * * * * * * * * * * * * * * * * * * * * * * //

dimensions      [0 0 0 1 0 0 0];

internalField   nonuniform List<scalar> 
2048
(
9.85522
9.85592
9.85729
9.85934
9.86203
9.86532
9.86917
9.87352
9.8783
9.88342
9.8888
9.89436
9.9
9.90565
9.91124
9.9167
9.92199
9.92706
9.93188
9.93643
9.9407
9.94469
9.94839
9.95183
9.955
9.95793
9.96062
9.9631
9.96537
9.96746
9.96938
9.97113
9.97274
9.97422
9.97557
9.9768
9.97792
9.97894
9.97986
9.9807
9.98145
9.98212
9.98273
9.98326
9.98374
9.98416
9.98453
9.98485
9.98513
9.98538
9.98559
9.98578
9.98594
9.98608
9.98619
9.98629
9.98637
9.98644
9.9865
9.98655
9.98658
9.98661
9.98663
9.98663
9.57143
9.57348
9.57757
9.58364
9.59161
9.60139
9.61283
9.62575
9.63993
9.65514
9.67112
9.68762
9.70437
9.72114
9.73771
9.7539
9.76956
9.78457
9.79883
9.81229
9.82492
9.83671
9.84766
9.85781
9.86718
9.87582
9.88377
9.89108
9.89779
9.90395
9.9096
9.91479
9.91954
9.92389
9.92787
9.93151
9.93482
9.93782
9.94055
9.94301
9.94523
9.94721
9.94899
9.95057
9.95197
9.9532
9.95429
9.95524
9.95608
9.9568
9.95743
9.95798
9.95845
9.95885
9.9592
9.95949
9.95973
9.95994
9.9601
9.96024
9.96034
9.96042
9.96047
9.96049
9.29849
9.30186
9.30857
9.31855
9.33166
9.34775
9.36658
9.38785
9.41121
9.43626
9.46258
9.48972
9.51727
9.54484
9.57205
9.59862
9.62429
9.64887
9.6722
9.69421
9.71484
9.73408
9.75195
9.76849
9.78376
9.79782
9.81076
9.82265
9.83357
9.8436
9.85279
9.86123
9.86896
9.87605
9.88252
9.88844
9.89382
9.89872
9.90315
9.90716
9.91076
9.91399
9.91687
9.91944
9.92171
9.92372
9.92548
9.92703
9.92838
9.92955
9.93057
9.93145
9.93221
9.93286
9.93342
9.93389
9.93429
9.93462
9.93489
9.93511
9.93527
9.9354
9.93548
9.93552
9.03516
9.03982
9.04909
9.06287
9.08103
9.10331
9.12941
9.15891
9.19132
9.22608
9.26258
9.3002
9.33836
9.37649
9.41409
9.45076
9.48614
9.51996
9.55204
9.58225
9.61054
9.63689
9.66134
9.68396
9.70481
9.72402
9.74168
9.7579
9.77279
9.78646
9.799
9.8105
9.82105
9.83071
9.83955
9.84762
9.85497
9.86164
9.86769
9.87315
9.87806
9.88246
9.88638
9.88987
9.89296
9.89569
9.89808
9.90018
9.90201
9.9036
9.90498
9.90617
9.9072
9.90808
9.90883
9.90947
9.91
9.91045
9.91081
9.91111
9.91133
9.9115
9.91161
9.91166
8.7804
8.78631
8.79809
8.81562
8.83874
8.86715
8.90046
8.93815
8.97957
9.02399
9.07061
9.11864
9.16728
9.21583
9.26364
9.31018
9.35501
9.39779
9.43831
9.47641
9.51202
9.54516
9.57586
9.60423
9.63037
9.65442
9.67652
9.69681
9.71544
9.73253
9.74821
9.7626
9.77579
9.78788
9.79894
9.80904
9.81823
9.82659
9.83415
9.84098
9.84712
9.85261
9.8575
9.86185
9.8657
9.86909
9.87207
9.87467
9.87695
9.87892
9.88063
9.88211
9.88337
9.88446
9.88539
9.88617
9.88683
9.88738
9.88784
9.8882
9.88848
9.88868
9.88882
9.88888
8.53337
8.5405
8.55474
8.57596
8.60398
8.63848
8.67899
8.72488
8.77534
8.82946
8.88623
8.94465
9.00374
9.06262
9.1205
9.17673
9.23079
9.28229
9.33095
9.37663
9.41925
9.45884
9.49547
9.52927
9.56039
9.589
9.61526
9.63936
9.66148
9.68177
9.7004
9.71748
9.73316
9.74752
9.76066
9.77266
9.7836
9.79353
9.80251
9.81062
9.8179
9.82441
9.83021
9.83535
9.8399
9.8439
9.84741
9.85048
9.85315
9.85547
9.85748
9.85921
9.8607
9.86197
9.86306
9.86398
9.86475
9.86539
9.86592
9.86634
9.86667
9.86691
9.86706
9.86714
8.29336
8.30169
8.31833
8.34318
8.37606
8.41664
8.46437
8.51852
8.57811
8.64203
8.70905
8.77792
8.84747
8.91664
8.98449
9.05027
9.11336
9.17333
9.22987
9.28282
9.33214
9.37786
9.4201
9.45902
9.49481
9.52767
9.55782
9.58548
9.61085
9.63412
9.65548
9.67509
9.69308
9.70957
9.72467
9.73845
9.75101
9.76241
9.77272
9.78202
9.79036
9.79782
9.80445
9.81033
9.81552
9.82008
9.82407
9.82756
9.83059
9.83322
9.83549
9.83745
9.83913
9.84057
9.84179
9.84283
9.8437
9.84442
9.84501
9.84549
9.84586
9.84613
9.84631
9.84639
8.05981
8.06931
8.08829
8.11671
8.15439
8.20103
8.25603
8.31854
8.38742
8.46131
8.53871
8.61815
8.69823
8.77768
8.85544
8.93063
9.00258
9.0708
9.13495
9.19488
9.25058
9.30211
9.34963
9.39335
9.4335
9.47034
9.5041
9.53506
9.56344
9.58948
9.61339
9.63534
9.65548
9.67396
9.69088
9.70633
9.7204
9.73318
9.74473
9.75513
9.76446
9.77279
9.78019
9.78674
9.7925
9.79757
9.80199
9.80585
9.80921
9.81211
9.81462
9.81677
9.81862
9.8202
9.82155
9.82268
9.82364
9.82443
9.82508
9.82561
9.82601
9.82631
9.8265
9.8266
7.83228
7.8429
7.86414
7.89603
7.93846
7.99115
8.05348
8.1245
8.20286
8.28693
8.37493
8.46509
8.55578
8.64554
8.73316
8.81767
8.8983
8.97454
9.04604
9.11267
9.17442
9.23144
9.28392
9.33213
9.37635
9.41687
9.45398
9.48798
9.51915
9.54774
9.57399
9.59812
9.62027
9.6406
9.65921
9.67622
9.69171
9.70577
9.71847
9.7299
9.74014
9.74927
9.75737
9.76452
9.77081
9.77632
9.78114
9.78533
9.78896
9.7921
9.79481
9.79714
9.79913
9.80083
9.80228
9.8035
9.80453
9.80538
9.80608
9.80665
9.80708
9.8074
9.80761
9.80771
7.61041
7.62208
7.6455
7.68074
7.72783
7.78654
7.85628
7.93598
8.02406
8.11858
8.21743
8.31852
8.41994
8.52005
8.6175
8.71121
8.80037
8.88441
8.963
9.03601
9.10352
9.16569
9.22282
9.27521
9.32319
9.36712
9.40731
9.44411
9.47783
9.50877
9.53719
9.56332
9.58734
9.60939
9.62959
9.64805
9.66485
9.6801
9.69388
9.70626
9.71734
9.7272
9.73593
9.74363
9.75038
9.7563
9.76145
9.76592
9.7698
9.77315
9.77603
9.7785
9.78062
9.78242
9.78395
9.78525
9.78633
9.78723
9.78797
9.78857
9.78903
9.78936
9.78958
9.78969
7.39393
7.40659
7.43203
7.47049
7.52211
7.5868
7.66402
7.7526
7.85069
7.956
8.06599
8.17823
8.29053
8.40104
8.50827
8.61108
8.7086
8.80024
8.88565
8.96476
9.03768
9.10469
9.16614
9.2224
9.27387
9.32092
9.36394
9.40329
9.43935
9.47243
9.50285
9.53083
9.55657
9.58023
9.60191
9.62172
9.63975
9.65611
9.67087
9.68413
9.69598
9.70651
9.71581
9.724
9.73117
9.73743
9.74287
9.74759
9.75168
9.7552
9.75822
9.76081
9.76303
9.76491
9.76651
9.76786
9.769
9.76994
9.77071
9.77133
9.77181
9.77216
9.77239
9.77251
7.18264
7.19618
7.22351
7.26498
7.32097
7.39157
7.47633
7.57402
7.68248
7.79894
7.92042
8.04406
8.16738
8.28833
8.40533
8.51713
8.62284
8.72185
8.81382
8.8987
8.97672
9.04824
9.11369
9.17353
9.22819
9.27811
9.3237
9.36538
9.40355
9.43859
9.47082
9.50052
9.52787
9.55301
9.57607
9.59714
9.61632
9.6337
9.64938
9.66346
9.67601
9.68714
9.69696
9.70557
9.7131
9.71966
9.72535
9.73028
9.73454
9.7382
9.74134
9.74403
9.74632
9.74827
9.74992
9.75132
9.75249
9.75346
9.75426
9.7549
9.75539
9.75575
9.75599
9.75611
6.97639
6.99073
7.01973
7.06397
7.1241
7.20049
7.29286
7.39991
7.51914
7.6472
7.78054
7.91585
8.05034
8.18178
8.30848
8.42917
8.54291
8.64907
8.74732
8.83767
8.92044
8.99614
9.06528
9.12839
9.18598
9.23851
9.28643
9.33022
9.3703
9.4071
9.44099
9.47226
9.50109
9.52763
9.55197
9.57422
9.59446
9.6128
9.62934
9.64415
9.65735
9.66903
9.6793
9.68828
9.69612
9.70293
9.70884
9.71394
9.71834
9.72211
9.72534
9.7281
9.73045
9.73245
9.73414
9.73557
9.73676
9.73776
9.73857
9.73923
9.73973
9.74011
9.74035
9.74047
6.77511
6.7901
6.82055
6.86727
6.93124
7.01324
7.11326
7.22998
7.36045
7.50061
7.64622
7.79349
7.93929
8.08123
8.21758
8.34702
8.46861
8.58171
8.68596
8.78144
8.86863
8.94816
9.02069
9.08679
9.14704
9.20194
9.25197
9.29764
9.33942
9.37781
9.4132
9.44592
9.47614
9.50398
9.52953
9.55287
9.57411
9.59333
9.61065
9.62615
9.63994
9.65211
9.66277
9.67208
9.68018
9.6872
9.69328
9.69852
9.70302
9.70688
9.71018
9.71299
9.71538
9.71741
9.71912
9.72057
9.72179
9.72279
9.72362
9.72428
9.7248
9.72518
9.72543
9.72555
6.57876
6.59426
6.62587
6.6747
6.74216
6.82952
6.9372
7.06391
7.2062
7.35902
7.51735
7.67686
7.83409
7.98652
8.13244
8.2705
8.39977
8.51958
8.62955
8.72982
8.82106
8.90411
8.9797
9.04853
9.1112
9.16823
9.22014
9.26749
9.31078
9.35057
9.38733
9.42139
9.4529
9.48196
9.50864
9.53301
9.55516
9.57521
9.59325
9.60939
9.62371
9.63631
9.64733
9.65691
9.66521
9.67241
9.67861
9.68396
9.68854
9.69246
9.69581
9.69865
9.70106
9.7031
9.70484
9.7063
9.70752
9.70853
9.70937
9.71004
9.71056
9.71094
9.71119
9.71132
6.38733
6.40318
6.43563
6.48615
6.55665
6.64904
6.76434
6.90143
7.0562
7.22232
7.39383
7.56588
7.73462
7.8975
8.05288
8.1994
8.33617
8.4625
8.5779
8.68259
8.77751
8.86374
8.94211
9.0134
9.07825
9.1372
9.19079
9.23961
9.28422
9.32524
9.36322
9.39853
9.43126
9.46147
9.48921
9.51453
9.53754
9.55835
9.57707
9.59378
9.6086
9.62159
9.6329
9.64269
9.65117
9.65849
9.6648
9.67022
9.67486
9.67881
9.68218
9.68504
9.68746
9.6895
9.69124
9.6927
9.69393
9.69494
9.69578
9.69645
9.69697
9.69736
9.69761
9.69774
6.20084
6.21686
6.24981
6.30152
6.37451
6.47149
6.59433
6.74224
6.9103
7.09043
7.27559
7.46047
7.64076
7.814
7.97872
8.13352
8.2776
8.41029
8.53082
8.63953
8.73774
8.82683
8.9077
8.9812
9.04803
9.10869
9.16375
9.21387
9.2596
9.30167
9.34075
9.37723
9.41111
9.44241
9.47115
9.49737
9.52117
9.54269
9.56202
9.57928
9.59454
9.60788
9.61942
9.62939
9.63799
9.6454
9.65178
9.65725
9.66192
9.66589
9.66927
9.67212
9.67453
9.67657
9.6783
9.67975
9.68097
9.68199
9.68282
9.68349
9.68401
9.6844
9.68465
9.68478
6.01935
6.03533
6.06841
6.12076
6.19559
6.2966
6.42679
6.58602
6.7684
6.96332
7.16259
7.36057
7.55241
7.73583
7.90976
8.07264
8.22385
8.36276
8.48815
8.60044
8.70152
8.79316
8.87626
8.95172
9.02035
9.08253
9.13888
9.19012
9.23679
9.27972
9.31978
9.35737
9.39236
9.42468
9.45438
9.48143
9.50596
9.52815
9.54805
9.5658
9.58149
9.59512
9.60686
9.61694
9.62563
9.6331
9.63951
9.645
9.64969
9.65366
9.65702
9.65985
9.66224
9.66426
9.66598
9.66742
9.66863
9.66964
9.67046
9.67113
9.67165
9.67203
9.67229
9.67241
5.8429
5.85866
5.89146
5.94385
6.01976
6.12407
6.26133
6.43245
6.63043
6.84098
7.05476
7.26616
7.46944
7.6628
7.84581
8.01654
8.17468
8.31976
8.44971
8.56508
8.66859
8.76251
8.84757
8.92478
8.99504
9.05856
9.11602
9.16823
9.21565
9.25925
9.30017
9.33886
9.37491
9.40821
9.43883
9.46665
9.49185
9.51465
9.53508
9.55329
9.56937
9.58327
9.59514
9.60529
9.61403
9.62152
9.62795
9.63345
9.63812
9.64207
9.64541
9.64821
9.65056
9.65255
9.65425
9.65567
9.65687
9.65786
9.65867
9.65933
9.65985
9.66024
9.66049
9.66061
5.67156
5.6869
5.719
5.77078
5.84692
5.95365
6.09751
6.28115
6.49642
6.72345
6.95203
7.17721
7.39174
7.59468
7.78669
7.96497
8.12981
8.28114
8.41535
8.53324
8.63869
8.73466
8.82143
8.90015
8.97196
9.03665
9.09503
9.14809
9.19607
9.24012
9.28179
9.32159
9.35868
9.3929
9.42442
9.45295
9.47875
9.50214
9.52305
9.54167
9.55815
9.57228
9.58421
9.59438
9.60314
9.61063
9.61704
9.62253
9.62718
9.63109
9.63439
9.63715
9.63945
9.64141
9.64308
9.64448
9.64565
9.64663
9.64743
9.64808
9.6486
9.64898
9.64923
9.64935
5.50539
5.52012
5.55111
5.6016
5.67701
5.78507
5.93483
6.13169
6.3665
6.61084
6.85432
7.09377
7.31919
7.53119
7.73223
7.91769
8.08896
8.24679
8.38497
8.50467
8.61153
8.70942
8.79765
8.87766
8.95096
9.01666
9.07577
9.1296
9.17793
9.2222
9.26449
9.30549
9.34359
9.37867
9.4111
9.44027
9.46659
9.49055
9.51189
9.53089
9.54778
9.5621
9.57404
9.58416
9.59292
9.60039
9.60676
9.61222
9.61683
9.62069
9.62394
9.62664
9.62888
9.63079
9.63243
9.63381
9.63496
9.63592
9.6367
9.63734
9.63786
9.63823
9.63848
9.6386
5.34445
5.35838
5.38786
5.43638
5.51002
5.6181
5.77275
5.98352
6.24094
6.50327
6.76143
7.01591
7.25168
7.47198
7.68231
7.87443
8.05175
8.21666
8.35848
8.47912
8.5868
8.68663
8.77605
8.85707
8.93194
8.99844
9.05808
9.11268
9.16116
9.20533
9.24813
9.2905
9.32957
9.36544
9.3988
9.42854
9.45528
9.47983
9.50154
9.52087
9.53821
9.55269
9.56456
9.57459
9.58333
9.59074
9.59705
9.60249
9.60703
9.61082
9.61402
9.61665
9.61883
9.62068
9.62229
9.62365
9.62476
9.6257
9.62646
9.62709
9.62761
9.62798
9.62822
9.62833
5.1888
5.20176
5.22934
5.2752
5.34598
5.45254
5.61067
5.83593
6.12025
6.40092
6.67308
6.94383
7.18907
7.41663
7.63688
7.83495
8.01773
8.19077
8.33583
8.45632
8.56415
8.66615
8.75646
8.83817
8.9148
8.9819
9.0418
9.09727
9.14566
9.18937
9.23254
9.27657
9.31658
9.3531
9.38751
9.4177
9.44475
9.46994
9.49195
9.51155
9.52943
9.54403
9.55572
9.56559
9.57433
9.58166
9.58787
9.59329
9.59776
9.60147
9.60462
9.60717
9.60925
9.61104
9.61263
9.61395
9.61504
9.61595
9.61669
9.61731
9.61782
9.61819
9.61842
9.61853
5.03844
5.05029
5.07564
5.1182
5.18498
5.28826
5.44792
5.68796
6.00525
6.30405
6.58874
6.87785
7.13124
7.36455
7.59599
7.79895
7.98633
8.16925
8.317
8.43599
8.54316
8.64791
8.73871
8.82067
8.89951
8.96691
9.02674
9.08336
9.13138
9.17417
9.21753
9.26373
9.30456
9.34154
9.37719
9.40769
9.43489
9.46086
9.48305
9.50283
9.52141
9.53609
9.54749
9.55712
9.56588
9.5731
9.57919
9.58461
9.58899
9.59259
9.59569
9.59815
9.60013
9.60185
9.60343
9.60471
9.60576
9.60664
9.60736
9.60796
9.60848
9.60885
9.60907
9.60918
4.89341
4.90403
4.92684
4.9655
5.02716
5.1252
5.28378
5.5383
5.89725
6.2129
6.50764
6.81853
7.07807
7.31494
7.55991
7.76618
7.95678
8.15239
8.30204
8.4178
8.52334
8.63195
8.72268
8.80428
8.88611
8.95338
9.01268
9.07096
9.11828
9.15958
9.20288
9.25201
9.29348
9.33063
9.36787
9.39848
9.4256
9.45257
9.4748
9.49462
9.51415
9.52884
9.5398
9.54911
9.55797
9.56504
9.57096
9.57641
9.58068
9.58415
9.58722
9.58958
9.59143
9.59307
9.59466
9.59591
9.5969
9.59777
9.59845
9.59904
9.59957
9.59993
9.60014
9.60024
4.7537
4.76298
4.78302
4.81725
4.87272
4.96342
5.11755
5.38509
5.79815
6.12775
6.42851
6.76677
7.02941
7.26672
7.52914
7.73636
7.92803
8.14072
8.29102
8.40138
8.5041
8.61841
8.70824
8.78857
8.87469
8.94121
8.99934
9.06016
9.10633
9.14543
9.18831
9.24155
9.2833
9.32018
9.35961
9.39
9.41673
9.4451
9.46715
9.4868
9.50768
9.52227
9.53261
9.5415
9.55058
9.55745
9.56314
9.5687
9.57282
9.57612
9.5792
9.58143
9.58314
9.58469
9.5863
9.58751
9.58845
9.58929
9.58995
9.59051
9.59106
9.59142
9.59162
9.5917
4.61927
4.62715
4.64422
4.67362
4.72192
4.80311
4.94855
5.22571
5.71076
6.04888
6.34953
6.72396
6.98511
7.2184
7.50461
7.70921
7.89868
8.13507
8.284
8.38637
8.48467
8.60763
8.69526
8.77305
8.86551
8.93031
8.98634
9.05114
9.09554
9.13157
9.17346
9.23255
9.27399
9.30997
9.3525
9.38222
9.4081
9.43852
9.46004
9.47921
9.50205
9.51637
9.52587
9.53421
9.5437
9.55029
9.55567
9.56144
9.56537
9.56846
9.5716
9.57369
9.57522
9.57666
9.57835
9.5795
9.58037
9.58121
9.58182
9.58235
9.58294
9.58329
9.58347
9.58355
4.49009
4.49652
4.51051
4.53473
4.57506
4.64462
4.7763
5.0565
5.63908
5.9765
6.26804
6.69218
6.94501
7.1679
7.48774
7.68448
7.86682
8.13673
8.28106
8.37234
8.46409
8.60019
8.68365
8.75701
8.85897
8.9206
8.9732
9.04416
9.08589
9.11784
9.15787
9.22539
9.26553
9.29968
9.34674
9.3751
9.39949
9.43294
9.45344
9.47166
9.49736
9.51111
9.51951
9.52714
9.53736
9.54354
9.5485
9.55465
9.55832
9.56113
9.56441
9.56633
9.56766
9.56897
9.57079
9.57187
9.57265
9.5735
9.57405
9.57455
9.5752
9.57554
9.57569
9.57576
4.36608
4.37105
4.38188
4.40073
4.43245
4.48846
4.6006
4.87234
5.58865
5.91066
6.18031
6.67446
6.90888
7.11245
7.48071
7.66189
7.82989
8.14761
8.28217
8.35889
8.44114
8.59695
8.67329
8.73957
8.8557
8.91198
8.95928
9.03964
9.07739
9.10412
9.14092
9.22055
9.25789
9.28888
9.34262
9.36857
9.39058
9.42857
9.44729
9.46389
9.49375
9.50648
9.51349
9.52018
9.5316
9.53717
9.54156
9.54835
9.55163
9.55409
9.55764
9.55934
9.56043
9.56158
9.56362
9.56459
9.56526
9.56615
9.56663
9.56707
9.56782
9.56813
9.56826
9.56831
4.24716
4.25067
4.25833
4.27173
4.29444
4.33534
4.4218
4.66617
5.56709
5.85125
6.08124
6.67506
6.87641
7.04828
7.48664
7.64118
7.78444
8.17039
8.28714
8.34565
8.41421
8.59924
8.66407
8.71951
8.85662
8.90435
8.94373
9.0382
9.07
9.09031
9.12183
9.21879
9.25101
9.27701
9.34055
9.3626
9.38097
9.42569
9.44155
9.45555
9.49147
9.50244
9.50775
9.51322
9.52649
9.53117
9.53475
9.54255
9.5453
9.54729
9.5513
9.5527
9.55351
9.55445
9.55683
9.55765
9.55818
9.55915
9.55954
9.5599
9.5608
9.56106
9.56116
9.5612
4.13322
4.13529
4.13983
4.14779
4.16134
4.18611
4.24105
4.42842
5.5846
5.79779
5.96402
6.69991
6.84719
6.97045
7.50986
7.62207
7.72598
8.20883
8.29549
8.33237
8.38127
8.60885
8.65583
8.69528
8.86302
8.89757
8.92545
9.0407
9.06365
9.07641
9.09952
9.22111
9.24482
9.26334
9.34114
9.35712
9.37016
9.42473
9.43618
9.44623
9.49082
9.49892
9.50226
9.50607
9.52213
9.52549
9.52799
9.53733
9.53929
9.54066
9.54539
9.54638
9.54688
9.54754
9.55044
9.55103
9.55139
9.55249
9.55276
9.55302
9.55412
9.55431
9.55437
9.5544
4.02414
4.02483
4.02632
4.02895
4.03343
4.04169
4.06072
4.14631
5.65466
5.74931
5.81971
6.75695
6.8206
6.87249
7.55621
7.60427
7.64865
8.26798
8.30629
8.31899
8.33966
8.62825
8.64838
8.66486
8.87667
8.89146
8.90304
9.04831
9.05815
9.06254
9.07262
9.22886
9.23919
9.24692
9.3452
9.35205
9.35748
9.42624
9.43112
9.43537
9.49227
9.49583
9.49697
9.49855
9.51869
9.52011
9.52113
9.53274
9.53358
9.53412
9.53995
9.54037
9.54054
9.54081
9.54446
9.54471
9.54485
9.54617
9.54628
9.54638
9.54778
9.54787
9.54789
9.5479
)
;

boundaryField
{
    left
    {
        type            zeroGradient;
    }
    right
    {
        type            zeroGradient;
    }
    interface
    {
        type            fixedValue;
        value           nonuniform List<scalar> 
64
(
3.97081
3.97081
3.97081
3.97081
3.97081
3.97081
3.97081
3.97081
5.72626
5.72626
5.72626
6.80791
6.80791
6.80791
7.59566
7.59566
7.59566
8.31225
8.31225
8.31225
8.31225
8.64483
8.64483
8.64483
8.88855
8.88855
8.88855
9.05561
9.05561
9.05561
9.05561
9.2365
9.2365
9.2365
9.3496
9.3496
9.3496
9.42867
9.42867
9.42867
9.49438
9.49438
9.49438
9.49438
9.5175
9.5175
9.5175
9.53079
9.53079
9.53079
9.53744
9.53744
9.53744
9.53744
9.54162
9.54162
9.54162
9.54311
9.54311
9.54311
9.54472
9.54472
9.54472
9.54472
)
;
    }
    bottom
    {
        type            fixedValue;
        value           uniform 10;
    }
    defaultFaces
    {
        type            empty;
    }
}


// ************************************************************************* //
