/*--------------------------------*- C++ -*----------------------------------*\
| =========                 |                                                 |
| \\      /  F ield         | OpenFOAM: The Open Source CFD Toolbox           |
|  \\    /   O peration     | Version:  5.x                                   |
|   \\  /    A nd           | Web:      www.OpenFOAM.org                      |
|    \\/     M anipulation  |                                                 |
\*---------------------------------------------------------------------------*/
FoamFile
{
    version     2.0;
    format      ascii;
    class       volScalarField;
    location    "0.4";
    object      gradTy;
}
// * * * * * * * * * * * * * * * * * * * * * * * * * * * * * * * * * * * * * //

dimensions      [0 -1 0 1 0 0 0];

internalField   nonuniform List<scalar> 
2048
(
-30.9873
-30.9742
-30.9485
-30.9105
-30.8613
-30.8019
-30.7337
-30.6587
-30.5787
-30.4957
-30.4117
-30.3287
-30.2482
-30.1717
-30.1
-30.034
-29.9739
-29.9198
-29.8717
-29.8293
-29.7923
-29.7601
-29.7323
-29.7084
-29.688
-29.6706
-29.6559
-29.6435
-29.6329
-29.6241
-29.6166
-29.6104
-29.6052
-29.6008
-29.5971
-29.5941
-29.5915
-29.5894
-29.5876
-29.5862
-29.5849
-29.5839
-29.5831
-29.5824
-29.5818
-29.5813
-29.5809
-29.5806
-29.5803
-29.5801
-29.5799
-29.5797
-29.5796
-29.5795
-29.5793
-29.5792
-29.5792
-29.5791
-29.579
-29.5789
-29.5789
-29.5788
-29.5788
-29.5788
-30.9948
-30.9816
-30.9554
-30.9167
-30.8664
-30.8057
-30.7362
-30.6595
-30.5777
-30.493
-30.4075
-30.3231
-30.2414
-30.164
-30.0917
-30.0253
-29.9651
-29.9111
-29.8632
-29.821
-29.7843
-29.7524
-29.725
-29.7015
-29.6814
-29.6643
-29.6499
-29.6377
-29.6274
-29.6187
-29.6114
-29.6053
-29.6002
-29.596
-29.5924
-29.5894
-29.5869
-29.5848
-29.5831
-29.5817
-29.5805
-29.5795
-29.5787
-29.578
-29.5774
-29.577
-29.5766
-29.5763
-29.576
-29.5758
-29.5756
-29.5754
-29.5753
-29.5752
-29.5751
-29.575
-29.5749
-29.5748
-29.5747
-29.5746
-29.5746
-29.5746
-29.5745
-29.5745
-31.0093
-30.9956
-30.9685
-30.9284
-30.8763
-30.8132
-30.7408
-30.661
-30.5759
-30.488
-30.3993
-30.3122
-30.2284
-30.1493
-30.0759
-30.0088
-29.9483
-29.8944
-29.8469
-29.8052
-29.7691
-29.7379
-29.7112
-29.6883
-29.6689
-29.6524
-29.6385
-29.6268
-29.6169
-29.6086
-29.6016
-29.5958
-29.5909
-29.5868
-29.5834
-29.5806
-29.5782
-29.5762
-29.5746
-29.5732
-29.5721
-29.5712
-29.5704
-29.5697
-29.5692
-29.5688
-29.5684
-29.5681
-29.5678
-29.5676
-29.5675
-29.5673
-29.5672
-29.567
-29.5669
-29.5668
-29.5668
-29.5667
-29.5666
-29.5665
-29.5665
-29.5664
-29.5664
-29.5664
-31.0301
-31.0158
-30.9874
-30.9455
-30.8907
-30.8242
-30.7477
-30.6633
-30.5734
-30.4806
-30.3876
-30.2966
-30.2096
-30.1281
-30.0531
-29.9852
-29.9245
-29.8708
-29.8237
-29.7829
-29.7477
-29.7175
-29.6917
-29.6699
-29.6513
-29.6357
-29.6225
-29.6114
-29.6021
-29.5943
-29.5878
-29.5823
-29.5778
-29.574
-29.5708
-29.5681
-29.5659
-29.5641
-29.5626
-29.5613
-29.5603
-29.5594
-29.5587
-29.5581
-29.5576
-29.5572
-29.5568
-29.5566
-29.5563
-29.5561
-29.556
-29.5558
-29.5557
-29.5556
-29.5555
-29.5554
-29.5553
-29.5552
-29.5552
-29.5551
-29.5551
-29.555
-29.555
-29.555
-31.0567
-31.0416
-31.0118
-30.9675
-30.9094
-30.8386
-30.7569
-30.6665
-30.5702
-30.4712
-30.3723
-30.2762
-30.1852
-30.1008
-30.024
-29.9551
-29.8941
-29.8408
-29.7946
-29.7548
-29.7208
-29.6919
-29.6675
-29.6468
-29.6294
-29.6148
-29.6026
-29.5923
-29.5837
-29.5766
-29.5706
-29.5656
-29.5614
-29.5579
-29.555
-29.5526
-29.5506
-29.5489
-29.5476
-29.5464
-29.5455
-29.5447
-29.544
-29.5435
-29.5431
-29.5427
-29.5424
-29.5422
-29.5419
-29.5418
-29.5416
-29.5415
-29.5414
-29.5413
-29.5412
-29.5411
-29.541
-29.541
-29.5409
-29.5408
-29.5408
-29.5407
-29.5407
-29.5407
-31.0887
-31.0729
-31.0414
-30.9944
-30.9324
-30.8565
-30.7683
-30.6706
-30.5664
-30.4596
-30.3535
-30.2513
-30.1555
-30.0677
-29.9887
-29.9189
-29.8579
-29.8052
-29.76
-29.7217
-29.6893
-29.662
-29.6391
-29.6199
-29.6038
-29.5905
-29.5793
-29.57
-29.5623
-29.5558
-29.5505
-29.546
-29.5423
-29.5392
-29.5366
-29.5345
-29.5327
-29.5312
-29.53
-29.529
-29.5282
-29.5275
-29.5269
-29.5264
-29.5261
-29.5257
-29.5255
-29.5253
-29.5251
-29.5249
-29.5248
-29.5247
-29.5246
-29.5245
-29.5244
-29.5244
-29.5243
-29.5242
-29.5241
-29.5241
-29.524
-29.524
-29.5239
-29.5239
-31.1258
-31.1092
-31.076
-31.0262
-30.9599
-30.878
-30.7823
-30.6757
-30.5621
-30.4458
-30.3312
-30.2218
-30.1205
-30.0289
-29.9478
-29.877
-29.8162
-29.7645
-29.7208
-29.6842
-29.6537
-29.6283
-29.6072
-29.5897
-29.5752
-29.5632
-29.5533
-29.5451
-29.5383
-29.5327
-29.528
-29.5241
-29.5209
-29.5182
-29.516
-29.5141
-29.5126
-29.5113
-29.5103
-29.5094
-29.5087
-29.5081
-29.5077
-29.5073
-29.5069
-29.5067
-29.5065
-29.5063
-29.5061
-29.506
-29.5059
-29.5058
-29.5058
-29.5057
-29.5056
-29.5055
-29.5055
-29.5054
-29.5053
-29.5053
-29.5052
-29.5052
-29.5051
-29.5051
-31.1676
-31.1503
-31.1155
-31.0627
-30.9918
-30.9034
-30.7991
-30.6822
-30.5573
-30.4299
-30.3052
-30.1876
-30.0802
-29.9846
-29.9012
-29.8299
-29.7696
-29.7192
-29.6774
-29.643
-29.6147
-29.5914
-29.5724
-29.5569
-29.5441
-29.5337
-29.5251
-29.518
-29.5122
-29.5075
-29.5035
-29.5002
-29.4975
-29.4953
-29.4935
-29.4919
-29.4907
-29.4896
-29.4888
-29.4881
-29.4875
-29.487
-29.4866
-29.4863
-29.486
-29.4858
-29.4857
-29.4855
-29.4854
-29.4853
-29.4853
-29.4852
-29.4851
-29.4851
-29.485
-29.4849
-29.4849
-29.4848
-29.4847
-29.4847
-29.4846
-29.4846
-29.4845
-29.4846
-31.2136
-31.1958
-31.1596
-31.1042
-31.0286
-30.933
-30.819
-30.6901
-30.552
-30.4116
-30.2753
-30.1484
-30.0343
-29.9346
-29.8494
-29.7778
-29.7185
-29.67
-29.6305
-29.5986
-29.5728
-29.5521
-29.5354
-29.5219
-29.5111
-29.5022
-29.4951
-29.4893
-29.4845
-29.4807
-29.4775
-29.4749
-29.4727
-29.4709
-29.4695
-29.4682
-29.4673
-29.4664
-29.4658
-29.4652
-29.4648
-29.4644
-29.4641
-29.4639
-29.4637
-29.4635
-29.4634
-29.4633
-29.4633
-29.4632
-29.4631
-29.4631
-29.4631
-29.463
-29.463
-29.4629
-29.4628
-29.4628
-29.4627
-29.4627
-29.4626
-29.4626
-29.4626
-29.4626
-31.2635
-31.2454
-31.2082
-31.1505
-31.0704
-30.9674
-30.8425
-30.6998
-30.5463
-30.3907
-30.2412
-30.1041
-29.9829
-29.8791
-29.7923
-29.721
-29.6634
-29.6172
-29.5805
-29.5515
-29.5287
-29.5107
-29.4966
-29.4854
-29.4765
-29.4694
-29.4637
-29.4592
-29.4556
-29.4526
-29.4502
-29.4483
-29.4466
-29.4453
-29.4443
-29.4434
-29.4426
-29.4421
-29.4416
-29.4412
-29.4409
-29.4406
-29.4404
-29.4403
-29.4402
-29.4401
-29.44
-29.4399
-29.4399
-29.4399
-29.4398
-29.4398
-29.4398
-29.4398
-29.4397
-29.4397
-29.4396
-29.4396
-29.4395
-29.4395
-29.4395
-29.4394
-29.4394
-29.4395
-31.3168
-31.2987
-31.2611
-31.2018
-31.1177
-31.007
-30.8701
-30.7116
-30.5402
-30.367
-30.2025
-30.0541
-29.9256
-29.818
-29.7302
-29.6599
-29.6045
-29.5613
-29.528
-29.5024
-29.4828
-29.4679
-29.4564
-29.4476
-29.4408
-29.4355
-29.4314
-29.4282
-29.4257
-29.4237
-29.422
-29.4207
-29.4197
-29.4188
-29.4181
-29.4176
-29.4171
-29.4168
-29.4165
-29.4163
-29.4161
-29.4159
-29.4158
-29.4158
-29.4157
-29.4157
-29.4156
-29.4156
-29.4156
-29.4156
-29.4156
-29.4156
-29.4156
-29.4156
-29.4156
-29.4155
-29.4155
-29.4155
-29.4154
-29.4154
-29.4154
-29.4154
-29.4153
-29.4154
-31.3727
-31.3551
-31.318
-31.258
-31.1707
-31.0525
-30.9027
-30.726
-30.5336
-30.34
-30.1586
-29.9981
-29.8622
-29.7514
-29.6634
-29.5949
-29.5425
-29.5029
-29.4734
-29.4517
-29.4357
-29.424
-29.4154
-29.4091
-29.4045
-29.401
-29.3985
-29.3966
-29.3951
-29.3941
-29.3932
-29.3926
-29.3921
-29.3917
-29.3914
-29.3911
-29.3909
-29.3908
-29.3907
-29.3906
-29.3906
-29.3906
-29.3905
-29.3905
-29.3906
-29.3906
-29.3906
-29.3906
-29.3906
-29.3907
-29.3907
-29.3907
-29.3907
-29.3907
-29.3907
-29.3907
-29.3907
-29.3907
-29.3906
-29.3906
-29.3906
-29.3906
-29.3906
-29.3907
-31.4307
-31.4142
-31.3785
-31.3193
-31.2299
-31.1048
-30.941
-30.7435
-30.5264
-30.3093
-30.109
-29.9355
-29.7926
-29.6792
-29.5919
-29.5262
-29.4776
-29.4424
-29.4173
-29.3998
-29.3877
-29.3795
-29.3739
-29.3702
-29.3677
-29.3662
-29.3652
-29.3646
-29.3643
-29.3641
-29.3641
-29.3641
-29.3641
-29.3641
-29.3642
-29.3642
-29.3643
-29.3644
-29.3645
-29.3645
-29.3646
-29.3647
-29.3648
-29.3648
-29.3649
-29.365
-29.3651
-29.3651
-29.3652
-29.3652
-29.3653
-29.3653
-29.3654
-29.3654
-29.3654
-29.3654
-29.3654
-29.3654
-29.3653
-29.3653
-29.3653
-29.3653
-29.3654
-29.3655
-31.49
-31.4752
-31.4422
-31.3855
-31.2958
-31.1647
-30.9862
-30.7648
-30.5185
-30.274
-30.0528
-29.8659
-29.7163
-29.6016
-29.5162
-29.4543
-29.4105
-29.3803
-29.3602
-29.3473
-29.3394
-29.3348
-29.3323
-29.3312
-29.331
-29.3312
-29.3318
-29.3325
-29.3333
-29.3341
-29.3347
-29.3353
-29.3359
-29.3363
-29.3367
-29.3371
-29.3374
-29.3377
-29.3379
-29.3382
-29.3384
-29.3385
-29.3387
-29.3389
-29.339
-29.3391
-29.3392
-29.3393
-29.3394
-29.3395
-29.3396
-29.3396
-29.3397
-29.3397
-29.3398
-29.3398
-29.3398
-29.3398
-29.3397
-29.3397
-29.3398
-29.3398
-29.3398
-29.3399
-31.5498
-31.5375
-31.5087
-31.4564
-31.3688
-31.2333
-31.0397
-30.7907
-30.5095
-30.2333
-29.9891
-29.7885
-29.6333
-29.5185
-29.4364
-29.3796
-29.3415
-29.317
-29.3023
-29.2945
-29.291
-29.2902
-29.2909
-29.2924
-29.2944
-29.2965
-29.2986
-29.3005
-29.3024
-29.304
-29.3054
-29.3066
-29.3076
-29.3085
-29.3092
-29.3099
-29.3104
-29.3109
-29.3113
-29.3117
-29.312
-29.3123
-29.3125
-29.3127
-29.3129
-29.3131
-29.3132
-29.3134
-29.3135
-29.3136
-29.3137
-29.3138
-29.3138
-29.3139
-29.314
-29.314
-29.314
-29.314
-29.314
-29.314
-29.3141
-29.3141
-29.3142
-29.3142
-31.6093
-31.6003
-31.5772
-31.5319
-31.4493
-31.3119
-31.1031
-30.8223
-30.499
-30.1859
-29.917
-29.7029
-29.5433
-29.4303
-29.3531
-29.3026
-29.2713
-29.2531
-29.2443
-29.2418
-29.243
-29.246
-29.2499
-29.2541
-29.2582
-29.2621
-29.2656
-29.2688
-29.2717
-29.2742
-29.2763
-29.278
-29.2795
-29.2807
-29.2818
-29.2827
-29.2834
-29.2841
-29.2847
-29.2852
-29.2856
-29.286
-29.2863
-29.2866
-29.2868
-29.287
-29.2872
-29.2874
-29.2875
-29.2877
-29.2878
-29.2879
-29.288
-29.2881
-29.2881
-29.2882
-29.2882
-29.2882
-29.2882
-29.2882
-29.2883
-29.2883
-29.2884
-29.2884
-31.6677
-31.6626
-31.647
-31.6115
-31.5376
-31.4018
-31.1786
-30.8609
-30.4859
-30.1302
-29.8354
-29.6082
-29.4462
-29.3373
-29.2666
-29.2238
-29.2001
-29.1888
-29.1863
-29.1895
-29.1956
-29.2025
-29.2096
-29.2164
-29.2225
-29.2281
-29.2331
-29.2375
-29.2413
-29.2447
-29.2474
-29.2497
-29.2516
-29.2531
-29.2545
-29.2556
-29.2566
-29.2574
-29.2582
-29.2588
-29.2593
-29.2598
-29.2602
-29.2605
-29.2608
-29.261
-29.2613
-29.2615
-29.2616
-29.2618
-29.2619
-29.2621
-29.2622
-29.2623
-29.2623
-29.2624
-29.2624
-29.2625
-29.2625
-29.2625
-29.2626
-29.2626
-29.2627
-29.2627
-31.724
-31.7237
-31.7173
-31.6945
-31.6338
-31.5044
-31.2688
-30.9085
-30.4688
-30.0642
-29.7431
-29.5039
-29.3419
-29.2397
-29.1774
-29.1437
-29.1286
-29.1246
-29.1287
-29.1379
-29.149
-29.1598
-29.17
-29.1793
-29.1875
-29.1948
-29.2011
-29.2066
-29.2114
-29.2155
-29.2189
-29.2216
-29.2239
-29.2258
-29.2274
-29.2288
-29.2299
-29.2309
-29.2318
-29.2325
-29.2331
-29.2337
-29.2341
-29.2345
-29.2349
-29.2352
-29.2354
-29.2357
-29.2359
-29.236
-29.2362
-29.2363
-29.2365
-29.2366
-29.2367
-29.2368
-29.2368
-29.2369
-29.2369
-29.2369
-29.237
-29.2369
-29.2371
-29.237
-31.7775
-31.7827
-31.7871
-31.7801
-31.7376
-31.6211
-31.3769
-30.9676
-30.4456
-29.9853
-29.6393
-29.3894
-29.2305
-29.1382
-29.0859
-29.0627
-29.0572
-29.0607
-29.0717
-29.0873
-29.1035
-29.1181
-29.1314
-29.1432
-29.1532
-29.1621
-29.1697
-29.1762
-29.1819
-29.1868
-29.1908
-29.1939
-29.1965
-29.1987
-29.2005
-29.2021
-29.2035
-29.2047
-29.2056
-29.2065
-29.2072
-29.2078
-29.2083
-29.2088
-29.2092
-29.2095
-29.2098
-29.21
-29.2102
-29.2104
-29.2106
-29.2108
-29.2109
-29.211
-29.2112
-29.2113
-29.2113
-29.2114
-29.2115
-29.2115
-29.2116
-29.2114
-29.2115
-29.2114
-31.8275
-31.8386
-31.8555
-31.8674
-31.8488
-31.7532
-31.5069
-31.042
-30.4127
-29.8903
-29.5233
-29.2641
-29.1121
-29.0336
-28.9927
-28.9814
-28.9865
-28.9974
-29.0155
-29.0378
-29.0593
-29.0775
-29.0938
-29.1079
-29.1197
-29.13
-29.1389
-29.1464
-29.1529
-29.1585
-29.1631
-29.1665
-29.1694
-29.1719
-29.174
-29.1758
-29.1773
-29.1786
-29.1797
-29.1806
-29.1814
-29.1821
-29.1827
-29.1832
-29.1836
-29.184
-29.1843
-29.1846
-29.1848
-29.185
-29.1852
-29.1854
-29.1855
-29.1857
-29.1858
-29.1859
-29.186
-29.1862
-29.1862
-29.1862
-29.1863
-29.1861
-29.1861
-29.186
-31.8734
-31.8907
-31.9213
-31.955
-31.9664
-31.9019
-31.6636
-31.1372
-30.3647
-29.7754
-29.3954
-29.1272
-28.9869
-28.9271
-28.8981
-28.9002
-28.9172
-28.9349
-28.9602
-28.9896
-29.0167
-29.0381
-29.0572
-29.0737
-29.087
-29.0987
-29.1088
-29.1171
-29.1244
-29.1308
-29.1359
-29.1396
-29.1427
-29.1455
-29.1477
-29.1497
-29.1514
-29.1528
-29.1541
-29.1551
-29.1559
-29.1567
-29.1573
-29.1579
-29.1583
-29.1587
-29.1591
-29.1594
-29.1596
-29.1599
-29.1601
-29.1602
-29.1604
-29.1606
-29.1607
-29.1608
-29.161
-29.1611
-29.1612
-29.1612
-29.1613
-29.161
-29.161
-29.1609
-31.9145
-31.9383
-31.9835
-32.0415
-32.089
-32.0676
-31.8528
-31.2616
-30.2931
-29.6361
-29.257
-28.9779
-28.8553
-28.8201
-28.8026
-28.8198
-28.8499
-28.8732
-28.9058
-28.9431
-28.9758
-28.9999
-29.0217
-29.0406
-29.0551
-29.0682
-29.0795
-29.0884
-29.0965
-29.1037
-29.1092
-29.113
-29.1165
-29.1195
-29.1219
-29.124
-29.1259
-29.1274
-29.1288
-29.1299
-29.1308
-29.1316
-29.1323
-29.1329
-29.1334
-29.1338
-29.1341
-29.1345
-29.1347
-29.135
-29.1352
-29.1354
-29.1356
-29.1357
-29.1359
-29.1361
-29.1362
-29.1364
-29.1365
-29.1364
-29.1365
-29.1361
-29.1361
-29.1361
-31.9506
-31.9808
-32.0411
-32.1253
-32.2147
-32.2502
-32.0807
-31.4274
-30.1851
-29.4673
-29.1112
-28.8147
-28.7177
-28.7147
-28.7061
-28.7404
-28.7856
-28.8124
-28.8526
-28.8985
-28.9371
-28.963
-28.9875
-29.0087
-29.024
-29.0385
-29.0511
-29.0604
-29.0692
-29.0772
-29.0833
-29.087
-29.0907
-29.094
-29.0965
-29.0988
-29.1009
-29.1025
-29.1039
-29.1051
-29.106
-29.1069
-29.1076
-29.1083
-29.1088
-29.1092
-29.1096
-29.11
-29.1103
-29.1105
-29.1107
-29.1109
-29.1111
-29.1113
-29.1115
-29.1117
-29.1118
-29.112
-29.1122
-29.112
-29.112
-29.1117
-29.1116
-29.1118
-31.9814
-32.0178
-32.0931
-32.2046
-32.3411
-32.4483
-32.354
-31.6532
-30.0215
-29.2638
-28.9643
-28.6352
-28.5747
-28.614
-28.6083
-28.6627
-28.7257
-28.7521
-28.8004
-28.8561
-28.901
-28.9272
-28.9545
-28.9784
-28.9938
-29.0098
-29.0237
-29.033
-29.0427
-29.0515
-29.0581
-29.0616
-29.0655
-29.0691
-29.0716
-29.0742
-29.0764
-29.078
-29.0796
-29.0809
-29.0818
-29.0827
-29.0835
-29.0842
-29.0847
-29.0852
-29.0856
-29.086
-29.0863
-29.0865
-29.0868
-29.087
-29.0872
-29.0873
-29.0876
-29.0878
-29.0879
-29.0882
-29.0884
-29.0882
-29.0881
-29.0878
-29.0876
-29.088
-32.0067
-32.049
-32.1388
-32.2778
-32.4649
-32.659
-32.6792
-31.9664
-29.7732
-29.0206
-28.8261
-28.4348
-28.4269
-28.5218
-28.508
-28.587
-28.6716
-28.6916
-28.7493
-28.8161
-28.8679
-28.8925
-28.9229
-28.9498
-28.9645
-28.982
-28.9975
-29.0064
-29.0169
-29.0268
-29.034
-29.0368
-29.041
-29.0451
-29.0474
-29.0502
-29.0527
-29.0542
-29.0559
-29.0573
-29.0582
-29.0592
-29.06
-29.0607
-29.0613
-29.0618
-29.0622
-29.0626
-29.0629
-29.0632
-29.0635
-29.0637
-29.0638
-29.064
-29.0643
-29.0645
-29.0647
-29.0649
-29.0651
-29.0649
-29.0647
-29.0645
-29.0643
-29.0647
-32.0266
-32.0743
-32.1775
-32.3431
-32.5826
-32.8774
-33.0608
-32.4076
-29.3974
-28.734
-28.7122
-28.206
-28.2752
-28.4436
-28.4028
-28.5137
-28.6258
-28.6297
-28.6992
-28.779
-28.8385
-28.8583
-28.8927
-28.9233
-28.9358
-28.9554
-28.9727
-28.9805
-28.9919
-29.0031
-29.0109
-29.0126
-29.0173
-29.0218
-29.0239
-29.027
-29.0297
-29.0311
-29.0329
-29.0344
-29.0353
-29.0363
-29.0372
-29.038
-29.0385
-29.039
-29.0395
-29.0399
-29.0402
-29.0405
-29.0408
-29.041
-29.0411
-29.0413
-29.0416
-29.0418
-29.042
-29.0424
-29.0426
-29.0424
-29.0419
-29.0419
-29.0416
-29.0421
-32.041
-32.0937
-32.2087
-32.399
-32.6903
-33.0961
-33.4995
-33.036
-28.8322
-28.4029
-28.645
-27.9363
-28.1209
-28.3867
-28.2885
-28.4431
-28.591
-28.5644
-28.6499
-28.7449
-28.8135
-28.824
-28.8637
-28.8992
-28.9073
-28.9297
-28.9494
-28.9549
-28.9677
-28.9803
-28.9891
-28.9888
-28.9942
-28.9994
-29.001
-29.0044
-29.0074
-29.0086
-29.0106
-29.0123
-29.013
-29.0141
-29.015
-29.0158
-29.0164
-29.0169
-29.0174
-29.0178
-29.0181
-29.0184
-29.0188
-29.0189
-29.0191
-29.0192
-29.0196
-29.0198
-29.02
-29.0204
-29.0207
-29.0205
-29.0197
-29.0199
-29.0197
-29.0199
-32.0502
-32.1072
-32.2321
-32.4443
-32.7839
-33.3057
-33.9891
-33.9365
-27.989
-28.0315
-28.6563
-27.6062
-27.9663
-28.3609
-28.1584
-28.3755
-28.5712
-28.4925
-28.6015
-28.7139
-28.7938
-28.7884
-28.8359
-28.8778
-28.8785
-28.9049
-28.9279
-28.9295
-28.9442
-28.9583
-28.9684
-28.9652
-28.9717
-28.9778
-28.9784
-28.9823
-28.9858
-28.9866
-28.9888
-28.9907
-28.9912
-28.9923
-28.9934
-28.9942
-28.9948
-28.9953
-28.9957
-28.9963
-28.9966
-28.9968
-28.9973
-28.9974
-28.9975
-28.9977
-28.9981
-28.9983
-28.9985
-28.999
-28.9992
-28.9992
-28.998
-28.9984
-28.9982
-28.9982
-32.0545
-32.1152
-32.2477
-32.4779
-32.8598
-33.4942
-34.512
-35.2295
-26.7431
-27.6326
-28.7891
-27.1866
-27.8152
-28.3793
-28.0026
-28.3118
-28.5717
-28.4093
-28.5543
-28.686
-28.7806
-28.7498
-28.809
-28.8598
-28.8485
-28.8808
-28.9082
-28.9036
-28.921
-28.937
-28.949
-28.9413
-28.9496
-28.957
-28.9559
-28.9607
-28.9648
-28.9648
-28.9674
-28.9696
-28.9696
-28.971
-28.9721
-28.973
-28.9735
-28.9741
-28.9745
-28.9751
-28.9753
-28.9755
-28.9761
-28.9762
-28.9763
-28.9764
-28.977
-28.9771
-28.9773
-28.9779
-28.9781
-28.9783
-28.9765
-28.9771
-28.9771
-28.9767
-32.0542
-32.1178
-32.2559
-32.4996
-32.915
-33.6489
-35.0331
-37.0827
-24.9227
-27.2318
-29.1003
-26.6352
-27.6742
-28.4594
-27.8071
-28.2536
-28.6
-28.3086
-28.5095
-28.6613
-28.7758
-28.7063
-28.7834
-28.8461
-28.8162
-28.8575
-28.891
-28.8768
-28.8985
-28.9163
-28.9313
-28.9167
-28.9279
-28.9371
-28.9335
-28.9395
-28.9443
-28.9432
-28.9464
-28.9489
-28.9484
-28.95
-28.9512
-28.9522
-28.9526
-28.9532
-28.9536
-28.9543
-28.9545
-28.9546
-28.9553
-28.9554
-28.9554
-28.9555
-28.9562
-28.9563
-28.9564
-28.9572
-28.9573
-28.9579
-28.9554
-28.9561
-28.9564
-28.9556
-32.0496
-32.1155
-32.2573
-32.5099
-32.9483
-33.757
-35.4922
-39.7263
-22.2947
-26.8742
-29.6637
-25.893
-27.5545
-28.6241
-27.5526
-28.2039
-28.6661
-28.1821
-28.4695
-28.6399
-28.7824
-28.6557
-28.7596
-28.8387
-28.781
-28.8356
-28.8775
-28.8488
-28.877
-28.8967
-28.916
-28.8917
-28.9073
-28.9188
-28.9114
-28.9192
-28.9251
-28.9223
-28.9263
-28.9293
-28.9279
-28.9299
-28.9312
-28.9322
-28.9326
-28.9332
-28.9335
-28.9344
-28.9345
-28.9345
-28.9355
-28.9354
-28.9354
-28.9354
-28.9364
-28.9363
-28.9363
-28.9374
-28.9374
-28.9385
-28.935
-28.9359
-28.9365
-28.9357
-32.0416
-32.1086
-32.2524
-32.5093
-32.9591
-33.8084
-35.793
-43.4694
-18.5469
-26.6309
-30.5703
-24.8785
-27.4727
-28.9017
-27.2125
-28.1667
-28.7822
-28.0176
-28.4375
-28.6209
-28.8037
-28.5941
-28.7381
-28.8391
-28.7408
-28.8153
-28.8683
-28.8188
-28.8569
-28.8777
-28.9038
-28.8653
-28.8876
-28.9022
-28.8893
-28.8998
-28.9071
-28.9017
-28.9069
-28.9107
-28.908
-28.9106
-28.912
-28.913
-28.9133
-28.9139
-28.9141
-28.9153
-28.9152
-28.9151
-28.9164
-28.9162
-28.9162
-28.9159
-28.9173
-28.9171
-28.9169
-28.9183
-28.9181
-28.9199
-28.9152
-28.9163
-28.9174
-28.9167
)
;

boundaryField
{
    left
    {
        type            calculated;
        value           nonuniform List<scalar> 
32
(
-30.9873
-30.9948
-31.0093
-31.0301
-31.0567
-31.0887
-31.1258
-31.1676
-31.2136
-31.2635
-31.3168
-31.3727
-31.4307
-31.49
-31.5498
-31.6093
-31.6677
-31.724
-31.7775
-31.8275
-31.8734
-31.9145
-31.9506
-31.9814
-32.0067
-32.0266
-32.041
-32.0502
-32.0545
-32.0542
-32.0496
-32.0416
)
;
    }
    right
    {
        type            calculated;
        value           nonuniform List<scalar> 
32
(
-29.5788
-29.5745
-29.5664
-29.555
-29.5407
-29.5239
-29.5051
-29.4846
-29.4626
-29.4395
-29.4154
-29.3907
-29.3655
-29.3399
-29.3142
-29.2884
-29.2627
-29.237
-29.2114
-29.186
-29.1609
-29.1361
-29.1118
-29.088
-29.0647
-29.0421
-29.0199
-28.9982
-28.9767
-28.9556
-28.9357
-28.9167
)
;
    }
    interface
    {
        type            calculated;
        value           nonuniform List<scalar> 
64
(
-32.0368
-32.104
-32.2484
-32.5063
-32.959
-33.8189
-35.8891
-45.66
-16.3486
-26.5486
-31.1219
-24.2914
-27.4437
-29.0724
-27.0171
-28.1517
-28.8544
-27.924
-28.4239
-28.6116
-28.8183
-28.56
-28.7279
-28.8413
-28.7191
-28.8054
-28.8648
-28.803
-28.847
-28.8683
-28.8983
-28.8515
-28.8779
-28.8943
-28.8781
-28.8902
-28.8983
-28.8914
-28.8973
-28.9015
-28.898
-28.901
-28.9024
-28.9035
-28.9036
-28.9043
-28.9044
-28.9057
-28.9056
-28.9054
-28.9069
-28.9066
-28.9066
-28.9062
-28.9078
-28.9075
-28.9072
-28.9089
-28.9085
-28.9107
-28.9053
-28.9066
-28.9079
-28.9072
)
;
    }
    bottom
    {
        type            calculated;
        value           nonuniform List<scalar> 
64
(
-30.9853
-30.9723
-30.9467
-30.909
-30.8599
-30.8009
-30.7331
-30.6585
-30.5789
-30.4963
-30.4128
-30.3301
-30.25
-30.1737
-30.1022
-30.0362
-29.9762
-29.9221
-29.874
-29.8315
-29.7944
-29.7621
-29.7342
-29.7102
-29.6897
-29.6723
-29.6575
-29.645
-29.6344
-29.6255
-29.618
-29.6117
-29.6065
-29.6021
-29.5984
-29.5953
-29.5927
-29.5906
-29.5888
-29.5873
-29.5861
-29.5851
-29.5842
-29.5835
-29.5829
-29.5825
-29.5821
-29.5817
-29.5815
-29.5812
-29.581
-29.5809
-29.5807
-29.5806
-29.5805
-29.5804
-29.5803
-29.5802
-29.5801
-29.5801
-29.58
-29.58
-29.5799
-29.5799
)
;
    }
    defaultFaces
    {
        type            empty;
    }
}


// ************************************************************************* //
