/*--------------------------------*- C++ -*----------------------------------*\
| =========                 |                                                 |
| \\      /  F ield         | OpenFOAM: The Open Source CFD Toolbox           |
|  \\    /   O peration     | Version:  5.x                                   |
|   \\  /    A nd           | Web:      www.OpenFOAM.org                      |
|    \\/     M anipulation  |                                                 |
\*---------------------------------------------------------------------------*/
FoamFile
{
    version     2.0;
    format      ascii;
    class       volScalarField;
    location    "0.4";
    object      gradTx;
}
// * * * * * * * * * * * * * * * * * * * * * * * * * * * * * * * * * * * * * //

dimensions      [0 -1 0 1 0 0 0];

internalField   nonuniform List<scalar> 
2048
(
0.00298216
0.00886759
0.014572
0.019955
0.0248546
0.0291567
0.0327262
0.0354545
0.0372794
0.0381858
0.0382092
0.0374323
0.035975
0.0339798
0.0315972
0.0289719
0.0262335
0.0234902
0.020827
0.0183057
0.0159673
0.013835
0.0119182
0.0102156
0.00871825
0.00741268
0.00628242
0.00530988
0.00447731
0.00376766
0.00316494
0.0026546
0.00222354
0.00186021
0.00155448
0.0012976
0.00108203
0.000901334
0.000750036
0.000623494
0.000517783
0.000429594
0.000356141
0.000295081
0.000244449
0.000202598
0.000168148
0.00013994
0.000117003
9.85094e-05
8.3746e-05
7.20756e-05
6.29069e-05
5.56711e-05
4.98164e-05
4.48257e-05
4.02594e-05
3.58024e-05
3.12783e-05
2.65818e-05
2.15262e-05
1.57809e-05
9.35356e-06
3.0099e-06
0.00887677
0.0263896
0.0433573
0.0593905
0.074003
0.0868294
0.0974681
0.10559
0.111001
0.113653
0.113653
0.111257
0.10683
0.100806
0.0936403
0.08577
0.0775825
0.0694
0.0614734
0.0539836
0.0470492
0.040736
0.0350688
0.0300408
0.0256242
0.0217768
0.0184489
0.0155875
0.0131395
0.011054
0.00928363
0.00778518
0.00651997
0.00545383
0.00455692
0.00380345
0.00317124
0.00264138
0.00219777
0.00182677
0.00151688
0.00125836
0.00104306
0.000864106
0.000715726
0.000593093
0.000492161
0.000409542
0.000342385
0.000288277
0.00024513
0.000211078
0.000184386
0.00016337
0.000146386
0.000131892
0.00011859
0.00010558
9.24083e-05
7.88457e-05
6.42893e-05
4.71123e-05
2.61164e-05
7.32373e-06
0.014667
0.043603
0.0716466
0.0981902
0.122425
0.143708
0.161354
0.174792
0.183676
0.187918
0.187706
0.183482
0.175883
0.165658
0.153584
0.140399
0.126751
0.113171
0.100068
0.0877309
0.0763456
0.0660105
0.0567567
0.0485658
0.0413853
0.0351414
0.029749
0.0251187
0.021162
0.0177948
0.0149388
0.0125232
0.0104849
0.00876817
0.00732455
0.00611219
0.00509523
0.00424308
0.00352978
0.00293333
0.00243519
0.0020197
0.00167372
0.00138617
0.00114781
0.000950844
0.000788787
0.000656193
0.000548496
0.000461831
0.000392864
0.00033861
0.000296266
0.000263088
0.000236358
0.000213519
0.000192441
0.000171703
0.000150689
0.000129289
0.000106959
8.02067e-05
3.9946e-05
7.45069e-06
0.020418
0.060723
0.099831
0.136924
0.170873
0.200724
0.225468
0.244244
0.256521
0.262159
0.261437
0.255022
0.243868
0.229081
0.211796
0.193072
0.173824
0.154791
0.136527
0.119418
0.1037
0.0894888
0.0768107
0.0656247
0.0558463
0.0473645
0.0400551
0.0337905
0.028446
0.023904
0.0200562
0.0168052
0.0140643
0.0117573
0.00981851
0.008191
0.00682629
0.0056831
0.00472641
0.00392663
0.00325879
0.00270188
0.00223821
0.00185295
0.00153366
0.00126991
0.001053
0.000875629
0.00073171
0.000616094
0.000524344
0.000452489
0.000396764
0.000353419
0.000318688
0.000289007
0.000261444
0.000234087
0.000206059
0.000177295
0.000148363
0.00011664
5.43208e-05
4.66249e-06
0.0261777
0.0778968
0.128176
0.176003
0.219918
0.258616
0.290695
0.314932
0.330557
0.337355
0.335724
0.32661
0.31135
0.291474
0.268526
0.243913
0.218831
0.19422
0.170767
0.148932
0.128985
0.111042
0.0951055
0.0811007
0.0689008
0.0583508
0.0492833
0.0415297
0.0349282
0.0293276
0.0245901
0.0205923
0.0172252
0.0143937
0.0120155
0.0100203
0.00834796
0.00694758
0.00577601
0.00479685
0.00397944
0.00329795
0.0027307
0.00225951
0.00186911
0.00154676
0.00128179
0.00106529
0.000889836
0.000749177
0.000637945
0.00055133
0.000484722
0.000433437
0.000392671
0.000357861
0.000325347
0.000292798
0.000258873
0.000222884
0.000186884
0.000154252
6.96702e-05
1.3552e-07
0.0319701
0.0952023
0.156838
0.215698
0.269981
0.317969
0.357774
0.387705
0.406668
0.414351
0.411303
0.398829
0.378749
0.353107
0.323914
0.292967
0.261748
0.231389
0.202692
0.17617
0.152099
0.130572
0.111553
0.0949163
0.0804821
0.0680438
0.0573859
0.0482967
0.0405757
0.0340383
0.0285178
0.0238658
0.0199524
0.0166645
0.0139051
0.0115914
0.00965301
0.00803048
0.00667353
0.00553977
0.00459355
0.0038049
0.00314865
0.00260369
0.00215235
0.00177984
0.00147383
0.00122402
0.00102186
0.000860176
0.000732849
0.000634394
0.000559492
0.000502596
0.000457865
0.000419712
0.000383829
0.000347663
0.000309291
0.000266528
0.000222607
0.000191644
8.50369e-05
-5.88414e-06
0.0377946
0.112649
0.185868
0.256151
0.321344
0.379239
0.427334
0.463313
0.485649
0.493893
0.488799
0.472145
0.446367
0.414133
0.378005
0.340201
0.302496
0.2662
0.232201
0.201035
0.172956
0.14801
0.126097
0.107028
0.090557
0.0764189
0.0643453
0.0540787
0.0453795
0.0380301
0.0318354
0.0266235
0.0222445
0.0185692
0.015487
0.0129043
0.0107416
0.00893201
0.00741916
0.00615556
0.00510131
0.00422287
0.00349215
0.00288557
0.00238341
0.00196917
0.00162912
0.0013518
0.00112772
0.00094898
0.000808889
0.00070146
0.000620823
0.000560653
0.000514048
0.000474321
0.000436558
0.000398249
0.0003569
0.000307905
0.000255316
0.000227615
9.90113e-05
-1.36831e-05
0.0436264
0.130178
0.215215
0.29738
0.374164
0.442773
0.499919
0.542453
0.568246
0.576667
0.568753
0.546919
0.514389
0.474602
0.430751
0.385514
0.340954
0.298532
0.259188
0.223441
0.191491
0.163308
0.138709
0.11742
0.0991209
0.0834786
0.0701684
0.0588854
0.0493508
0.0413144
0.0345543
0.0288761
0.0241116
0.0201168
0.0167693
0.0139659
0.0116196
0.00965719
0.00801718
0.00664784
0.00550573
0.00455441
0.00376334
0.00310693
0.00256378
0.002116
0.00174869
0.00144945
0.00120808
0.00101609
0.000866408
0.000752718
0.000668771
0.000607581
0.00056116
0.000521575
0.00048327
0.000444063
0.000401015
0.000346156
0.000284197
0.00026063
0.000109792
-2.38562e-05
0.0494178
0.147664
0.244723
0.339277
0.428471
0.508816
0.576016
0.625792
0.655186
0.66332
0.651639
0.623419
0.5829
0.534461
0.482023
0.428746
0.376965
0.32825
0.283544
0.24331
0.207656
0.176445
0.149385
0.126104
0.106193
0.0892477
0.0748823
0.0627443
0.0525161
0.0439162
0.0366974
0.0306443
0.025572
0.0213234
0.0177659
0.0147882
0.0122972
0.0102146
0.00847484
0.00702271
0.00581197
0.00480384
0.00396585
0.00327082
0.00269602
0.00222246
0.00183431
0.00151848
0.00126416
0.0010625
0.000906149
0.000788675
0.000703629
0.000643505
0.000599228
0.000561431
0.000523774
0.000484656
0.000440905
0.000380198
0.000308085
0.000288776
0.000115232
-3.71549e-05
0.0550985
0.164918
0.274135
0.381607
0.484169
0.577518
0.656066
0.713999
0.747207
0.754486
0.737874
0.701823
0.651881
0.593565
0.531617
0.469688
0.410344
0.355208
0.305169
0.260582
0.221424
0.187419
0.158146
0.133112
0.111815
0.0937696
0.0785306
0.065697
0.054914
0.0458708
0.0382964
0.0319563
0.0266506
0.0222105
0.0184951
0.0153868
0.0127876
0.0106154
0.00880151
0.00728806
0.00602666
0.00497672
0.00410433
0.00338114
0.0027834
0.0022913
0.00188832
0.00156082
0.00129758
0.00108951
0.000929152
0.000810089
0.000725876
0.000668663
0.000628319
0.000593844
0.000557883
0.000519609
0.000475865
0.000408898
0.000325725
0.000309949
0.000113084
-5.42693e-05
0.060577
0.181686
0.303092
0.424003
0.54103
0.648932
0.74048
0.807775
0.845089
0.850798
0.827822
0.782217
0.72121
0.651678
0.579263
0.508089
0.44089
0.379264
0.323973
0.275213
0.232789
0.196255
0.165031
0.138498
0.116043
0.0971032
0.0811697
0.067796
0.0565922
0.0472208
0.0393893
0.0328457
0.0273763
0.022803
0.0189781
0.0157795
0.0131058
0.0108723
0.0090079
0.00745291
0.00615736
0.0050794
0.00418412
0.00344236
0.00282969
0.00232568
0.00191336
0.00157869
0.00131022
0.00109869
0.000936668
0.000817908
0.000736144
0.000683385
0.000648526
0.000618741
0.000585368
0.000548495
0.000505238
0.000431179
0.000336041
0.000322196
0.00010148
-7.55015e-05
0.0657436
0.197659
0.331135
0.465965
0.598677
0.723004
0.829649
0.907881
0.949686
0.952904
0.921788
0.864591
0.790661
0.708474
0.624632
0.543672
0.468398
0.400283
0.339883
0.28718
0.241767
0.202994
0.170104
0.14233
0.118952
0.0993191
0.0828658
0.0691013
0.0576044
0.0480139
0.0400182
0.033349
0.0277809
0.0231279
0.0192378
0.0159857
0.0132682
0.0109989
0.00910545
0.00752687
0.00621216
0.00511866
0.0042109
0.00345925
0.00283887
0.00232897
0.00191226
0.00157449
0.00130408
0.00109171
0.00093009
0.000813217
0.00073519
0.000688092
0.000659979
0.000636031
0.000605952
0.000570879
0.000528463
0.000446138
0.000338425
0.000324156
7.95574e-05
-0.000100368
0.0704737
0.21248
0.357716
0.506854
0.656581
0.799562
0.923952
1.01517
1.06195
1.06147
1.02001
0.948826
0.859898
0.763548
0.667349
0.576141
0.492666
0.418149
0.35285
0.296483
0.248397
0.207702
0.173443
0.144696
0.120624
0.100497
0.083692
0.0696784
0.0580081
0.0483004
0.0402272
0.033505
0.0278976
0.0232135
0.019298
0.0160252
0.0132912
0.0110092
0.00910586
0.00751979
0.00619933
0.00510142
0.00419044
0.00343666
0.00281505
0.00230461
0.00188793
0.00155068
0.00128124
0.00107035
0.000910886
0.000797199
0.000723869
0.000683287
0.000662853
0.000645629
0.000619341
0.000586357
0.00054515
0.000453179
0.00033304
0.00031554
4.8081e-05
-0.00012724
0.0746334
0.225756
0.382209
0.545899
0.714034
0.878292
1.02375
1.13064
1.183
1.17719
1.12266
1.03468
0.928472
0.816418
0.707004
0.605198
0.513512
0.432775
0.362851
0.303147
0.252737
0.210463
0.175143
0.145692
0.121155
0.100725
0.0837258
0.0695956
0.0578626
0.0481321
0.0400618
0.0333531
0.0277599
0.0230879
0.0191822
0.0159176
0.0131913
0.0109168
0.00902071
0.00744139
0.00612703
0.00503451
0.00412846
0.00337938
0.00276225
0.00225601
0.00184324
0.00150968
0.00124377
0.00103636
0.000880554
0.000771088
0.000703114
0.000669547
0.000657381
0.000647483
0.000625256
0.000594608
0.000555176
0.00045214
0.000321057
0.000297554
9.83758e-06
-0.000153191
0.0780867
0.237077
0.403926
0.582198
0.770139
0.958707
1.12941
1.25547
1.31411
1.30077
1.22976
1.12178
0.995821
0.866533
0.743169
0.630555
0.530779
0.444105
0.369893
0.307219
0.254869
0.211378
0.175312
0.145425
0.120645
0.100091
0.0830471
0.0689221
0.0572273
0.04756
0.0395667
0.0329322
0.0274009
0.0227788
0.0189134
0.015682
0.0129844
0.0107352
0.00886116
0.0073011
0.0060032
0.00492454
0.00403045
0.00329204
0.00268439
0.00218646
0.00178097
0.00145383
0.00119367
0.000991461
0.000840576
0.000736147
0.000673908
0.00064751
0.000643859
0.000641602
0.000623466
0.000595431
0.000558785
0.000443385
0.000304767
0.000273148
-3.04196e-05
-0.000174222
0.0807035
0.246036
0.42215
0.614737
0.823788
1.0401
1.24123
1.39109
1.45684
1.43289
1.34124
1.20961
1.06127
0.913291
0.775411
0.651946
0.544351
0.452124
0.37401
0.308768
0.254893
0.210564
0.17407
0.144009
0.119198
0.0986881
0.0817361
0.0677269
0.05616
0.0466338
0.0387858
0.0322805
0.0268525
0.0223126
0.0185133
0.0153362
0.0126854
0.0104769
0.0086378
0.00710784
0.00583534
0.00477774
0.00390161
0.00317898
0.00258515
0.00209908
0.00170373
0.00138537
0.00113284
0.000937281
0.000792386
0.000693634
0.000637273
0.000617866
0.000622637
0.000628066
0.000613805
0.000588772
0.000556658
0.000427864
0.000287481
0.000246981
-6.66447e-05
-0.000185988
0.0823687
0.252252
0.436157
0.642409
0.87365
1.12149
1.35948
1.53927
1.61305
1.5742
1.45678
1.29749
1.12402
0.956049
0.803318
0.669138
0.554156
0.456864
0.375268
0.307882
0.252925
0.208153
0.171544
0.141563
0.11692
0.0966078
0.0798717
0.066077
0.0547159
0.0454003
0.0377613
0.031435
0.026145
0.0217141
0.0180025
0.0148971
0.0123084
0.0101536
0.00836047
0.00686999
0.00563052
0.00459993
0.00374673
0.00304428
0.00246799
0.00199679
0.00161397
0.00130636
0.00106306
0.000875354
0.000737345
0.000644788
0.000594248
0.000581335
0.000594117
0.000607042
0.000596194
0.000574707
0.00054995
0.000407125
0.000273201
0.000225027
-9.27946e-05
-0.00018501
0.0829909
0.255394
0.445262
0.664051
0.918162
1.20154
1.48429
1.70224
1.78504
1.72517
1.57586
1.3846
1.18318
0.994146
0.826517
0.681941
0.560176
0.458407
0.373759
0.304659
0.249096
0.204289
0.167867
0.138208
0.113919
0.0939388
0.0775303
0.0640372
0.0529464
0.0439027
0.0365333
0.030431
0.0253067
0.0210063
0.0173998
0.0143798
0.011866
0.00977633
0.0080382
0.00659525
0.00539529
0.00439643
0.00357017
0.00289162
0.0023361
0.00188227
0.00151393
0.0012187
0.000985977
0.000807078
0.000676717
0.000590815
0.000545881
0.00053866
0.000558739
0.000578785
0.000570645
0.000553404
0.00054025
0.000383308
0.000266043
0.000213804
-0.000104526
-0.000170142
0.0825102
0.255207
0.448852
0.678486
0.955528
1.27847
1.61557
1.88283
1.97564
1.88602
1.69762
1.47001
1.23775
1.02692
0.844706
0.690208
0.56245
0.456894
0.369592
0.299206
0.243551
0.19913
0.16317
0.134063
0.1103
0.0907654
0.0747851
0.0616692
0.0508984
0.0421801
0.0351399
0.0293027
0.0243633
0.02021
0.0167225
0.0137979
0.0113698
0.00935493
0.00767911
0.00629069
0.00513571
0.00417205
0.00337583
0.00272438
0.00219241
0.001758
0.00140562
0.00112411
0.000903088
0.000733714
0.000611649
0.000532881
0.000493222
0.00049058
0.000516963
0.00054364
0.000537272
0.000525059
0.000529464
0.000359131
0.000269531
0.000219274
-0.000100845
-0.000143877
0.0809033
0.251528
0.446434
0.684581
0.983749
1.34998
1.75286
2.08467
2.18841
2.0565
1.82083
1.55273
1.2866
1.05374
0.857679
0.693829
0.561079
0.452526
0.36289
0.291626
0.236445
0.192842
0.157585
0.129247
0.106167
0.0871651
0.0717049
0.0590323
0.0486131
0.0402661
0.0336174
0.0280828
0.0233377
0.0193438
0.0159862
0.013163
0.0108302
0.00889852
0.00729038
0.00596271
0.00485737
0.00393105
0.00316712
0.00254555
0.00203958
0.0016262
0.00129085
0.00102412
0.000815773
0.000656361
0.000543159
0.000472114
0.000437321
0.000437817
0.000469257
0.000502041
0.000496298
0.000489828
0.000519599
0.000337875
0.000285887
0.000245585
-8.50918e-05
-0.00011291
0.0781858
0.244303
0.437668
0.681314
1.00066
1.41308
1.89511
2.31246
2.42785
2.23552
1.94385
1.63179
1.3285
1.07402
0.865366
0.692717
0.556227
0.44558
0.353777
0.282009
0.227949
0.185609
0.151234
0.123874
0.101622
0.0832064
0.0683546
0.0561834
0.0461256
0.0381888
0.032001
0.0268036
0.0222491
0.018424
0.0152054
0.0124851
0.0102563
0.00841545
0.00687817
0.00561711
0.00456548
0.00367714
0.00294695
0.00235782
0.00188007
0.00148891
0.00117115
0.000920085
0.000725302
0.000575958
0.000472112
0.000409609
0.000379231
0.000381048
0.000416084
0.000454514
0.000448058
0.000447774
0.000512445
0.000323356
0.000315528
0.000293898
-6.46969e-05
-8.74431e-05
0.0744109
0.233597
0.422405
0.667849
1.00402
1.46407
2.04029
2.57234
2.69971
2.42076
2.06459
1.70643
1.36203
1.08728
0.867883
0.686772
0.548122
0.436414
0.342358
0.270422
0.218248
0.177627
0.144223
0.118056
0.096766
0.0789453
0.0647951
0.0531788
0.0434632
0.035969
0.0303253
0.0254974
0.0211124
0.0174647
0.0143935
0.0117717
0.00965652
0.00791356
0.00644747
0.00525912
0.00426495
0.00341343
0.00271772
0.00216356
0.0017161
0.00134793
0.00104785
0.000813168
0.000632868
0.00049326
0.0003992
0.000346447
0.000320018
0.000320876
0.000357879
0.000401685
0.000392982
0.000398851
0.000509213
0.000319866
0.00035698
0.000361589
-4.93653e-05
-7.896e-05
0.0696643
0.219589
0.40071
0.643617
0.991629
1.49839
2.18491
2.87233
3.0114
2.60799
2.18059
1.77632
1.38548
1.09313
0.865582
0.675826
0.537068
0.425492
0.3287
0.256896
0.20755
0.169114
0.136632
0.111897
0.0917024
0.0744218
0.0610839
0.0500757
0.0406449
0.0336198
0.0286258
0.0241975
0.0199368
0.0164782
0.0135633
0.0110281
0.00903809
0.00740038
0.00600197
0.00489352
0.00396057
0.00314237
0.00248134
0.00196487
0.00154975
0.00120492
0.00092201
0.000704351
0.000539644
0.000408832
0.000324916
0.000283715
0.000260783
0.000257787
0.000295037
0.000344315
0.000331566
0.000342916
0.000510148
0.000332034
0.00040734
0.000442091
-4.78717e-05
-9.66891e-05
0.0640569
0.202568
0.372874
0.608389
0.96147
1.51066
2.32331
3.22292
3.37253
2.7901
2.28912
1.84184
1.39669
1.09142
0.859135
0.659562
0.523447
0.413406
0.312803
0.241412
0.196093
0.160314
0.128502
0.105502
0.0865396
0.0696536
0.0572773
0.0469351
0.037679
0.0311451
0.0269406
0.0229397
0.0187239
0.0154752
0.0127282
0.0102562
0.00840792
0.00688351
0.00554369
0.00452474
0.00365712
0.00286571
0.0022392
0.00176363
0.00138294
0.00106135
0.000794408
0.00059443
0.000446842
0.000323021
0.000249519
0.000222543
0.000202684
0.000192099
0.000227883
0.000283352
0.000264306
0.000279777
0.000514221
0.00036459
0.000463339
0.000525542
-6.4254e-05
-0.000143585
0.0577162
0.182915
0.339413
0.56234
0.911941
1.49476
2.44667
3.63778
3.79559
2.95595
2.38749
1.90448
1.39279
1.08223
0.849624
0.637389
0.507751
0.400912
0.294558
0.223889
0.184158
0.151503
0.119819
0.0989771
0.0813971
0.0646287
0.0534322
0.0438247
0.0345611
0.028538
0.0253123
0.0217637
0.0174652
0.0144659
0.0119028
0.00945402
0.0077728
0.00637105
0.00507263
0.00415707
0.00335965
0.00258433
0.00199221
0.00156158
0.00121753
0.000918576
0.000665551
0.000483994
0.000355808
0.000235932
0.000172991
0.000164142
0.00014698
0.000123901
0.000156637
0.000220038
0.000191607
0.00020924
0.000518941
0.000422036
0.000522881
0.000600184
-9.47661e-05
-0.000213179
0.0507771
0.161083
0.301049
0.506094
0.842073
1.44407
2.5417
4.13474
4.29693
3.0886
2.47356
1.96735
1.36977
1.06606
0.83866
0.608279
0.490616
0.388972
0.2737
0.204177
0.172087
0.143005
0.110487
0.0924374
0.076413
0.0592946
0.0496106
0.0408238
0.0312716
0.0257792
0.0237904
0.0207151
0.0161391
0.0134611
0.0111046
0.00861434
0.00713993
0.00587215
0.00458608
0.00379492
0.00307372
0.00229805
0.00174086
0.00136035
0.00105527
0.00077786
0.00053563
0.000373413
0.000268139
0.000147385
9.49874e-05
0.00010986
9.50774e-05
5.29835e-05
8.13537e-05
0.000156048
0.00011367
0.000131144
0.000520353
0.000508284
0.000586782
0.000654219
-0.000127209
-0.000288892
0.0433758
0.137573
0.25868
0.440738
0.751781
1.35193
2.58895
4.73682
4.89786
3.16326
2.5465
2.03574
1.32191
1.044
0.828529
0.570546
0.472887
0.378807
0.249744
0.182048
0.160301
0.135201
0.1003
0.0860183
0.0717539
0.0535448
0.0458847
0.0380276
0.0277713
0.0228353
0.0224349
0.0198481
0.0147056
0.0124742
0.0103547
0.00772292
0.00651779
0.00539764
0.00407783
0.00344317
0.00280567
0.00200539
0.00148525
0.00116155
0.000897909
0.000640396
0.000404499
0.000262789
0.000185826
5.68622e-05
1.47764e-05
6.12414e-05
4.85945e-05
-2.125e-05
1.84169e-06
9.36894e-05
3.03683e-05
4.53415e-05
0.000513202
0.000626342
0.000660308
0.000677616
-0.000143968
-0.000347069
0.0356451
0.112905
0.213324
0.367796
0.642094
1.21248
2.56067
5.47357
5.62612
3.14451
2.60796
2.11772
1.24103
1.01799
0.822363
0.52156
0.455711
0.371958
0.221902
0.157198
0.149322
0.128547
0.0889049
0.0798908
0.0676265
0.0472003
0.0423445
0.0355524
0.0239976
0.0196568
0.0213185
0.0192284
0.0131017
0.0115233
0.00968054
0.00675626
0.00591714
0.00496086
0.00353704
0.00310771
0.00256299
0.00170323
0.00122524
0.00096683
0.000747146
0.000507363
0.000271648
0.000151899
0.000111442
-3.65678e-05
-6.88278e-05
2.00981e-05
9.43166e-06
-9.98642e-05
-8.24465e-05
3.61433e-05
-5.88773e-05
-4.8373e-05
0.000491235
0.000778192
0.000754085
0.000663227
-0.000129096
-0.000364063
0.0277123
0.0875918
0.166066
0.289159
0.515337
1.02174
2.41808
6.38257
6.51764
2.98298
2.66356
2.22486
1.11545
0.991218
0.824322
0.457395
0.440674
0.370351
0.18899
0.129254
0.139794
0.123594
0.0757544
0.0742828
0.0642909
0.0399875
0.0391084
0.033542
0.0198583
0.0161763
0.0205313
0.0189368
0.0112333
0.0106354
0.00911711
0.0056786
0.00535243
0.00457846
0.00294689
0.00279604
0.00235464
0.00138634
0.000960614
0.000777981
0.000604643
0.000379979
0.000136174
4.01117e-05
4.83604e-05
-0.000134341
-0.000157538
-1.14122e-05
-2.01465e-05
-0.000184484
-0.000172559
-1.22435e-05
-0.000155222
-0.000150369
0.00044751
0.000964985
0.000883988
0.0006067
-7.80517e-05
-0.000326058
0.019699
0.0621098
0.11798
0.206972
0.375193
0.779264
2.10821
7.51113
7.61868
2.61131
2.72507
2.37284
0.928834
0.968625
0.839799
0.372398
0.429976
0.376362
0.149314
0.0977982
0.132506
0.121011
0.0600523
0.0695061
0.0620761
0.0315106
0.0363362
0.0321722
0.015226
0.0123067
0.0201833
0.0190733
0.00896749
0.00985017
0.00870933
0.00443831
0.00484359
0.00427143
0.00228282
0.00251818
0.00219143
0.00104682
0.000691312
0.00059695
0.000472006
0.000259558
-3.23914e-06
-7.37369e-05
1.02229e-06
-0.000238516
-0.00025367
-3.07032e-05
-3.74226e-05
-0.000277382
-0.000270225
-4.56305e-05
-0.000260518
-0.000261283
0.000374618
0.00118763
0.00106981
0.000504991
-6.50211e-06
-0.000238317
0.0117178
0.036867
0.0700576
0.123478
0.226603
0.49028
1.56012
8.91816
8.98822
1.93942
2.81294
2.58204
0.658705
0.957554
0.875613
0.258689
0.426673
0.392872
0.100533
0.0623994
0.128408
0.121612
0.0406892
0.0659911
0.0613956
0.0212192
0.0342457
0.0316562
0.00993064
0.00794028
0.0204087
0.0197624
0.00612235
0.00922586
0.00851405
0.00296362
0.00441821
0.00406601
0.00151056
0.00228769
0.00208629
0.000673508
0.000417773
0.000425893
0.000350728
0.000147581
-0.000148335
-0.000191492
-2.47625e-05
-0.000351923
-0.000360211
-3.46759e-05
-3.91347e-05
-0.000381556
-0.000378062
-5.63194e-05
-0.000377453
-0.000382058
0.000264648
0.00144785
0.00133277
0.00035392
4.77908e-05
-0.000128455
0.00386547
0.012165
0.0231227
0.0408378
0.0754372
0.168404
0.680556
10.6761
10.7008
0.849084
2.95963
2.87796
0.274788
0.968586
0.940188
0.105593
0.434968
0.423317
0.0395197
0.0226668
0.128619
0.126391
0.0161702
0.0643273
0.0627631
0.00837163
0.0331332
0.0322481
0.00375191
0.00294818
0.0213681
0.0211582
0.00245548
0.00884573
0.00860193
0.00115762
0.00411419
0.00399471
0.000583805
0.00212299
0.0020546
0.000251181
0.000141345
0.000267175
0.000242131
4.57763e-05
-0.000301286
-0.000315876
-2.14694e-05
-0.000478331
-0.000480887
-1.96377e-05
-2.13853e-05
-0.000500795
-0.000499825
-3.43593e-05
-0.000509727
-0.000513844
0.000108824
0.0017495
0.00169235
0.000145966
3.79321e-05
-3.67296e-05
)
;

boundaryField
{
    left
    {
        type            calculated;
        value           uniform 0;
    }
    right
    {
        type            calculated;
        value           uniform 0;
    }
    interface
    {
        type            calculated;
        value           nonuniform List<scalar> 
64
(
0.00386547
0.012165
0.0231227
0.0408378
0.0754372
0.168404
0.680556
10.6761
10.7008
0.849084
2.95963
2.87796
0.274788
0.968586
0.940188
0.105593
0.434968
0.423317
0.0395197
0.0226668
0.128619
0.126391
0.0161702
0.0643273
0.0627631
0.00837163
0.0331332
0.0322481
0.00375191
0.00294818
0.0213681
0.0211582
0.00245548
0.00884573
0.00860193
0.00115762
0.00411419
0.00399471
0.000583805
0.00212299
0.0020546
0.000251181
0.000141345
0.000267175
0.000242131
4.57763e-05
-0.000301286
-0.000315876
-2.14694e-05
-0.000478331
-0.000480887
-1.96377e-05
-2.13853e-05
-0.000500795
-0.000499825
-3.43593e-05
-0.000509727
-0.000513844
0.000108824
0.0017495
0.00169235
0.000145966
3.79321e-05
-3.67296e-05
)
;
    }
    bottom
    {
        type            calculated;
        value           nonuniform List<scalar> 
64
(
0.00298216
0.00886759
0.014572
0.019955
0.0248546
0.0291567
0.0327262
0.0354545
0.0372794
0.0381858
0.0382092
0.0374323
0.035975
0.0339798
0.0315972
0.0289719
0.0262335
0.0234902
0.020827
0.0183057
0.0159673
0.013835
0.0119182
0.0102156
0.00871825
0.00741268
0.00628242
0.00530988
0.00447731
0.00376766
0.00316494
0.0026546
0.00222354
0.00186021
0.00155448
0.0012976
0.00108203
0.000901334
0.000750036
0.000623494
0.000517783
0.000429594
0.000356141
0.000295081
0.000244449
0.000202598
0.000168148
0.00013994
0.000117003
9.85094e-05
8.3746e-05
7.20756e-05
6.29069e-05
5.56711e-05
4.98164e-05
4.48257e-05
4.02594e-05
3.58024e-05
3.12783e-05
2.65818e-05
2.15262e-05
1.57809e-05
9.35356e-06
3.0099e-06
)
;
    }
    defaultFaces
    {
        type            empty;
    }
}


// ************************************************************************* //
