/*--------------------------------*- C++ -*----------------------------------*\
| =========                 |                                                 |
| \\      /  F ield         | OpenFOAM: The Open Source CFD Toolbox           |
|  \\    /   O peration     | Version:  5.x                                   |
|   \\  /    A nd           | Web:      www.OpenFOAM.org                      |
|    \\/     M anipulation  |                                                 |
\*---------------------------------------------------------------------------*/
FoamFile
{
    version     2.0;
    format      ascii;
    class       volScalarField;
    location    "2.3";
    object      gradTy;
}
// * * * * * * * * * * * * * * * * * * * * * * * * * * * * * * * * * * * * * //

dimensions      [0 -1 0 1 0 0 0];

internalField   nonuniform List<scalar> 
2048
(
-21.7683
-21.6867
-21.5244
-21.2837
-20.9679
-20.5818
-20.1316
-19.6252
-19.0718
-18.4815
-17.865
-17.2331
-16.5963
-15.9642
-15.3452
-14.7465
-14.1739
-13.6315
-13.1224
-12.6481
-12.2094
-11.8061
-11.437
-11.1009
-10.7958
-10.5197
-10.2704
-10.0457
-9.84349
-9.66164
-9.49822
-9.35143
-9.21962
-9.10132
-8.99521
-8.90009
-8.8149
-8.73868
-8.67059
-8.60983
-8.55571
-8.50756
-8.46478
-8.42683
-8.39321
-8.36343
-8.33708
-8.31376
-8.29313
-8.27488
-8.25872
-8.24441
-8.23175
-8.22055
-8.21066
-8.20197
-8.19438
-8.18783
-8.18225
-8.17764
-8.17395
-8.17119
-8.16935
-8.16843
-21.8341
-21.7516
-21.5877
-21.3442
-21.0245
-20.6332
-20.1768
-19.663
-19.1013
-18.5023
-17.877
-17.2367
-16.5921
-15.9531
-15.3283
-14.725
-14.1488
-13.6041
-13.0935
-12.6187
-12.1802
-11.7776
-11.4097
-11.075
-10.7716
-10.4972
-10.2497
-10.0268
-9.8262
-9.64592
-9.48394
-9.33846
-9.20784
-9.0906
-8.98544
-8.89117
-8.80674
-8.73122
-8.66375
-8.60356
-8.54995
-8.50228
-8.45995
-8.42241
-8.38915
-8.35971
-8.33367
-8.31063
-8.29026
-8.27222
-8.25626
-8.24212
-8.2296
-8.21852
-8.20873
-8.20011
-8.19258
-8.18606
-8.18051
-8.17591
-8.17223
-8.16948
-8.16764
-8.16672
-21.9592
-21.8752
-21.7081
-21.4595
-21.1325
-20.7316
-20.263
-19.7351
-19.1576
-18.5417
-17.8995
-17.2429
-16.5834
-15.9312
-15.2954
-14.6833
-14.1006
-13.5514
-13.0383
-12.5626
-12.1246
-11.7234
-11.3579
-11.026
-10.7257
-10.4547
-10.2106
-9.99096
-9.79357
-9.61625
-9.45701
-9.31402
-9.18563
-9.0704
-8.96703
-8.87436
-8.79136
-8.71713
-8.65084
-8.59172
-8.53909
-8.49232
-8.45082
-8.41405
-8.3815
-8.3527
-8.32725
-8.30474
-8.28484
-8.26723
-8.25163
-8.23781
-8.22555
-8.21469
-8.20508
-8.1966
-8.18917
-8.18273
-8.17723
-8.17265
-8.16899
-8.16623
-8.16439
-8.16347
-22.1367
-22.0507
-21.8793
-21.6238
-21.2867
-20.8721
-20.3864
-19.838
-19.2375
-18.5974
-17.9307
-17.2507
-16.5696
-15.8987
-15.2473
-14.6228
-14.0309
-13.4756
-12.9591
-12.4824
-12.0452
-11.6464
-11.2843
-10.9566
-10.661
-10.3948
-10.1555
-9.94065
-9.74777
-9.57466
-9.41929
-9.2798
-9.15456
-9.04213
-8.94125
-8.85081
-8.76982
-8.6974
-8.63274
-8.57511
-8.52386
-8.47835
-8.43802
-8.40233
-8.37077
-8.34288
-8.31825
-8.29649
-8.27725
-8.26023
-8.24515
-8.23177
-8.21989
-8.20935
-8.19998
-8.1917
-8.18441
-8.17806
-8.17262
-8.16807
-8.16442
-8.16166
-8.15982
-8.1589
-22.3607
-22.2724
-22.0961
-21.8324
-21.4829
-21.0514
-20.5437
-19.969
-19.3389
-18.6672
-17.9687
-17.2584
-16.5498
-15.855
-15.1838
-14.5438
-13.9407
-13.3781
-12.8578
-12.3802
-11.9445
-11.5491
-11.1916
-10.8695
-10.5799
-10.3199
-10.0868
-9.87798
-9.69081
-9.52302
-9.37249
-9.23738
-9.11605
-9.00709
-8.90931
-8.82162
-8.7431
-8.6729
-8.61025
-8.55448
-8.50492
-8.46099
-8.42211
-8.38776
-8.35744
-8.33068
-8.30708
-8.28625
-8.26784
-8.25155
-8.23711
-8.22429
-8.21288
-8.20272
-8.19366
-8.18561
-8.17849
-8.17225
-8.16688
-8.16236
-8.15872
-8.15596
-8.1541
-8.15317
-22.6258
-22.5352
-22.3538
-22.0812
-21.7179
-21.2665
-20.7328
-20.1261
-19.4596
-18.7491
-18.0117
-17.2645
-16.5226
-15.7992
-15.1046
-14.4467
-13.8307
-13.26
-12.7357
-12.2577
-11.8245
-11.4336
-11.0821
-10.7668
-10.4846
-10.2322
-10.0066
-9.80491
-9.62455
-9.46303
-9.31822
-9.18822
-9.07143
-8.96649
-8.87227
-8.78775
-8.71207
-8.64443
-8.58412
-8.53048
-8.4829
-8.44079
-8.4036
-8.37082
-8.34194
-8.31651
-8.29411
-8.27436
-8.25692
-8.24149
-8.2278
-8.21562
-8.20476
-8.19504
-8.18634
-8.17855
-8.17162
-8.16551
-8.1602
-8.1557
-8.15205
-8.14928
-8.1474
-8.14646
-22.927
-22.8345
-22.6484
-22.3669
-21.9889
-21.5156
-20.9519
-20.3078
-19.598
-18.8414
-18.0579
-17.2672
-16.4866
-15.7303
-15.0093
-14.3313
-13.7013
-13.1221
-12.5942
-12.1165
-11.6868
-11.3018
-10.9577
-10.6507
-10.3772
-10.1336
-9.91661
-9.72324
-9.55065
-9.39628
-9.25791
-9.13364
-9.0219
-8.92142
-8.83112
-8.7501
-8.67754
-8.61273
-8.555
-8.50372
-8.45832
-8.41824
-8.38295
-8.35192
-8.32467
-8.30073
-8.27967
-8.26114
-8.24478
-8.23031
-8.21746
-8.206
-8.19575
-8.18652
-8.17821
-8.17071
-8.16398
-8.15798
-8.15273
-8.14825
-8.14458
-8.14177
-8.13986
-8.13891
-23.2597
-23.1659
-22.9761
-22.6866
-22.294
-21.7973
-21.2001
-20.513
-19.753
-18.9424
-18.1054
-17.2647
-16.4402
-15.6472
-14.8971
-14.1975
-13.5528
-12.965
-12.4341
-11.958
-11.5332
-11.1555
-10.8203
-10.523
-10.2595
-10.0259
-9.81868
-9.63459
-9.47065
-9.32419
-9.1929
-9.07486
-8.96857
-8.87285
-8.78674
-8.70944
-8.64023
-8.57844
-8.52346
-8.47472
-8.43167
-8.3938
-8.36056
-8.33146
-8.30598
-8.28365
-8.26407
-8.24685
-8.23167
-8.21824
-8.20631
-8.19564
-8.18604
-8.17735
-8.16945
-8.16226
-8.15572
-8.14984
-8.14463
-8.14014
-8.13642
-8.13357
-8.13162
-8.13064
-23.6192
-23.5251
-23.3334
-23.0378
-22.6317
-22.1109
-21.4771
-20.7412
-19.9233
-19.0506
-18.1522
-17.2551
-16.3817
-15.5486
-14.7673
-14.0449
-13.3852
-12.7894
-12.2565
-11.7833
-11.3652
-10.9965
-10.6717
-10.3855
-10.1333
-9.91083
-9.71436
-9.54044
-9.38596
-9.24807
-9.12438
-9.01296
-8.9124
-8.82165
-8.73991
-8.66649
-8.60076
-8.54212
-8.49003
-8.44395
-8.40339
-8.36784
-8.33681
-8.30976
-8.28617
-8.26559
-8.24757
-8.23176
-8.21784
-8.20551
-8.19455
-8.18471
-8.17581
-8.16769
-8.16023
-8.15334
-8.147
-8.14122
-8.13603
-8.1315
-8.12772
-8.12478
-8.12277
-8.12177
-24.001
-23.9081
-23.7169
-23.4182
-23.0008
-22.4562
-21.7831
-20.9924
-20.1082
-19.1643
-18.1963
-17.2362
-16.3093
-15.4333
-14.6192
-13.8734
-13.1989
-12.5958
-12.0622
-11.5938
-11.1841
-10.8263
-10.5136
-10.24
-10.0002
-9.78988
-9.60506
-9.44214
-9.29782
-9.16911
-9.05345
-8.94894
-8.85427
-8.7686
-8.69131
-8.62184
-8.55968
-8.50429
-8.45516
-8.41183
-8.37384
-8.34073
-8.312
-8.28712
-8.26555
-8.24679
-8.23042
-8.21608
-8.20347
-8.1923
-8.18235
-8.17339
-8.16523
-8.1577
-8.15068
-8.1441
-8.13795
-8.13225
-8.12705
-8.12244
-8.11856
-8.11552
-8.11343
-8.11239
-24.4005
-24.3106
-24.1234
-23.8257
-23.4008
-22.8338
-22.119
-21.267
-20.307
-19.2817
-18.2354
-17.2058
-16.2212
-15.2999
-14.4521
-13.6829
-12.9941
-12.3848
-11.8521
-11.3904
-10.9915
-10.6466
-10.3476
-10.0879
-9.86167
-9.66442
-9.49205
-9.34086
-9.20737
-9.08837
-8.9811
-8.88366
-8.79494
-8.71436
-8.64152
-8.57603
-8.51747
-8.46536
-8.41925
-8.37871
-8.34334
-8.31274
-8.28643
-8.26382
-8.24434
-8.22749
-8.21283
-8.20001
-8.18875
-8.17878
-8.16988
-8.16184
-8.15443
-8.14751
-8.14093
-8.13466
-8.12868
-8.12303
-8.11779
-8.11308
-8.10905
-8.10587
-8.10368
-8.10259
-24.8129
-24.7283
-24.5495
-24.2584
-23.8311
-23.2446
-22.4865
-21.5658
-20.519
-19.4011
-18.2671
-17.1613
-16.1154
-15.1473
-14.2655
-13.4734
-12.7711
-12.1568
-11.6269
-11.1745
-10.7888
-10.4589
-10.1754
-9.93075
-9.71907
-9.53568
-9.37649
-9.23768
-9.11562
-9.00682
-8.90823
-8.81792
-8.73509
-8.65951
-8.59104
-8.5295
-8.47454
-8.42573
-8.38264
-8.3449
-8.31218
-8.28415
-8.26032
-8.24008
-8.22278
-8.20789
-8.19498
-8.18372
-8.17383
-8.16509
-8.15727
-8.15016
-8.14355
-8.13724
-8.13111
-8.12514
-8.11931
-8.11369
-8.10837
-8.10349
-8.09927
-8.09592
-8.0936
-8.09244
-25.2334
-25.1569
-24.9917
-24.7141
-24.2916
-23.6904
-22.8878
-21.8904
-20.7437
-19.5202
-18.2885
-17.1003
-15.9901
-14.9746
-14.0592
-13.2452
-12.5305
-11.9124
-11.3875
-10.947
-10.5774
-10.2647
-9.99833
-9.77002
-9.57366
-9.40479
-9.25937
-9.13351
-9.02347
-8.92536
-8.83566
-8.7524
-8.67528
-8.60452
-8.54029
-8.48263
-8.43125
-8.38571
-8.34563
-8.31068
-8.28058
-8.25515
-8.2339
-8.21611
-8.20106
-8.18819
-8.17705
-8.16735
-8.15886
-8.15135
-8.14463
-8.13849
-8.13268
-8.127
-8.12132
-8.11562
-8.10992
-8.1043
-8.09885
-8.09377
-8.0893
-8.08572
-8.08326
-8.08203
-25.6572
-25.5919
-25.4463
-25.1907
-24.7825
-24.1733
-23.3265
-22.2429
-20.9802
-19.6363
-18.2968
-17.0199
-15.8434
-14.7811
-13.8332
-12.9987
-12.273
-11.6522
-11.1344
-10.7093
-10.3589
-10.0657
-9.81798
-9.60701
-9.42656
-9.27271
-9.14156
-9.02913
-8.93169
-8.84478
-8.76414
-8.68771
-8.61599
-8.54979
-8.4896
-8.43573
-8.3879
-8.34559
-8.30848
-8.27626
-8.24874
-8.22592
-8.20733
-8.19211
-8.17936
-8.16853
-8.15919
-8.15104
-8.14393
-8.13768
-8.13207
-8.12691
-8.12193
-8.11689
-8.11164
-8.10619
-8.10061
-8.09495
-8.08934
-8.08398
-8.07919
-8.07533
-8.0727
-8.07139
-26.0795
-26.0287
-25.9095
-25.686
-25.3037
-24.6964
-23.807
-22.626
-21.2272
-19.7462
-18.2885
-16.9171
-15.6736
-14.5663
-13.5877
-12.7347
-11.9994
-11.3767
-10.8682
-10.4625
-10.135
-9.86347
-9.63576
-9.443
-9.27878
-9.14028
-9.02382
-8.92519
-8.84093
-8.76584
-8.69438
-8.62437
-8.55759
-8.49563
-8.43922
-8.38904
-8.34475
-8.30561
-8.27142
-8.24185
-8.2168
-8.19658
-8.18078
-8.16822
-8.15783
-8.14906
-8.1415
-8.1349
-8.12916
-8.12414
-8.11964
-8.11549
-8.11139
-8.10698
-8.10214
-8.09693
-8.09143
-8.0857
-8.07989
-8.07419
-8.069
-8.0648
-8.06198
-8.06058
-26.4953
-26.4625
-26.3772
-26.1971
-25.8552
-25.2631
-24.3352
-23.0436
-21.4829
-19.8458
-18.2602
-16.7886
-15.4791
-14.3304
-13.323
-12.4543
-11.7111
-11.086
-10.5892
-10.2078
-9.90742
-9.65945
-9.45302
-9.27918
-9.13114
-9.0082
-8.90678
-8.82216
-8.75173
-8.68925
-8.62709
-8.56279
-8.50037
-8.44229
-8.38932
-8.34276
-8.30201
-8.26595
-8.23462
-8.20762
-8.18486
-8.16724
-8.15437
-8.14461
-8.13661
-8.12989
-8.12411
-8.11899
-8.1146
-8.11081
-8.10742
-8.10431
-8.10111
-8.09735
-8.09288
-8.08788
-8.08245
-8.07662
-8.07056
-8.06445
-8.05876
-8.05416
-8.05113
-8.04964
-26.9001
-26.8889
-26.8449
-26.7209
-26.4366
-25.8774
-24.9185
-23.5009
-21.7438
-19.9301
-18.2084
-16.6307
-15.2582
-14.0742
-13.0399
-12.1588
-11.4097
-10.7802
-10.2973
-9.94649
-9.67824
-9.45517
-9.27102
-9.11673
-8.98433
-8.87704
-8.791
-8.72037
-8.6645
-8.61572
-8.56296
-8.50328
-8.44449
-8.38994
-8.34
-8.29701
-8.25989
-8.22677
-8.19827
-8.17373
-8.15297
-8.13792
-8.1282
-8.12142
-8.11579
-8.11112
-8.10709
-8.10338
-8.10031
-8.09775
-8.09544
-8.09339
-8.09116
-8.08806
-8.08389
-8.07907
-8.07371
-8.06775
-8.06142
-8.05482
-8.04848
-8.0434
-8.04016
-8.03861
-27.2896
-27.3031
-27.3081
-27.2536
-27.0468
-26.5436
-25.5666
-24.0051
-22.0047
-19.9926
-18.1305
-16.4393
-15.0097
-13.7994
-12.7388
-11.85
-11.0976
-10.4587
-9.99198
-9.68013
-9.44992
-9.25193
-9.09086
-8.95684
-8.83879
-8.74722
-8.67704
-8.61991
-8.57947
-8.54596
-8.50277
-8.44598
-8.39001
-8.33876
-8.29126
-8.25189
-8.2186
-8.18818
-8.16251
-8.14035
-8.12112
-8.1086
-8.10236
-8.09879
-8.09546
-8.09283
-8.09052
-8.08811
-8.08632
-8.08497
-8.0837
-8.08277
-8.08159
-8.07916
-8.0752
-8.07053
-8.06524
-8.05912
-8.0525
-8.04533
-8.03817
-8.03252
-8.0291
-8.02751
-27.6596
-27.7009
-27.7619
-27.7905
-27.684
-27.2661
-26.2916
-24.566
-22.2565
-20.0253
-18.0252
-16.209
-14.7324
-13.5095
-12.4197
-11.53
-10.7785
-10.1201
-9.6719
-9.41047
-9.22552
-9.05072
-8.9135
-8.80085
-8.69465
-8.61902
-8.5655
-8.52064
-8.49673
-8.48079
-8.44746
-8.39084
-8.33685
-8.28893
-8.24297
-8.20745
-8.17839
-8.1502
-8.12746
-8.10769
-8.08924
-8.07923
-8.07696
-8.07688
-8.07568
-8.07506
-8.07448
-8.07318
-8.07264
-8.07252
-8.0722
-8.07243
-8.07245
-8.0707
-8.0668
-8.06227
-8.05707
-8.05074
-8.04385
-8.03605
-8.02781
-8.02151
-8.01794
-8.01639
-28.0068
-28.078
-28.2013
-28.3263
-28.3447
-28.0488
-27.1085
-25.1985
-22.4847
-20.0188
-17.8939
-15.9329
-14.4253
-13.2099
-12.0815
-11.201
-10.4576
-9.7616
-9.33489
-9.13976
-9.00898
-8.85194
-8.73966
-8.65039
-8.55159
-8.49259
-8.45719
-8.42208
-8.4161
-8.42113
-8.39818
-8.33751
-8.28483
-8.24075
-8.19488
-8.16367
-8.13958
-8.11278
-8.09325
-8.07603
-8.05717
-8.04965
-8.0521
-8.05591
-8.05647
-8.05784
-8.05905
-8.05856
-8.05928
-8.06045
-8.0609
-8.06237
-8.06379
-8.06276
-8.05866
-8.05426
-8.04923
-8.04261
-8.03551
-8.02703
-8.01737
-8.01033
-8.00671
-8.0053
-28.3281
-28.4309
-28.6213
-28.855
-29.0242
-28.8944
-28.0355
-25.924
-22.6662
-19.9612
-17.7434
-15.6006
-14.0875
-12.9101
-11.7207
-10.8654
-10.1433
-9.37809
-8.9776
-8.87094
-8.80558
-8.65496
-8.56976
-8.50773
-8.40863
-8.36795
-8.35338
-8.32328
-8.33716
-8.36809
-8.35654
-8.28513
-8.23361
-8.19474
-8.14651
-8.12055
-8.10268
-8.07571
-8.05999
-8.0458
-8.02459
-8.01967
-8.02792
-8.03613
-8.03778
-8.04121
-8.04435
-8.0442
-8.04624
-8.0488
-8.04974
-8.05257
-8.05567
-8.05542
-8.05073
-8.0465
-8.04177
-8.0347
-8.02754
-8.01839
-8.00676
-7.99892
-7.99543
-7.99428
-28.6212
-28.7563
-29.0171
-29.3696
-29.7154
-29.8038
-29.0944
-26.7752
-22.7643
-19.8393
-17.5887
-15.1963
-13.718
-12.6244
-11.3297
-10.526
-9.84815
-8.96112
-8.59535
-8.60793
-8.6225
-8.45749
-8.40394
-8.37617
-8.26376
-8.245
-8.25602
-8.22261
-8.25919
-8.32303
-8.32474
-8.23218
-8.18272
-8.15184
-8.09703
-8.07802
-8.06844
-8.03854
-8.02779
-8.01765
-7.99102
-7.98901
-8.00462
-8.01793
-8.01947
-8.02516
-8.03057
-8.02999
-8.03351
-8.03771
-8.03862
-8.04297
-8.04819
-8.04884
-8.04289
-8.03897
-8.03478
-8.02698
-8.02
-8.01028
-7.99589
-7.98724
-7.98411
-7.98341
-28.8844
-29.0518
-29.3841
-29.8627
-30.4091
-30.7742
-30.3096
-27.8013
-22.7227
-19.6378
-17.4577
-14.6949
-13.3162
-12.376
-10.8941
-10.1853
-9.59171
-8.49683
-8.18208
-8.35592
-8.46971
-8.25459
-8.24198
-8.26077
-8.11337
-8.12353
-8.1683
-8.11743
-8.18106
-8.2876
-8.30601
-8.17603
-8.13158
-8.11364
-8.04507
-8.03601
-8.03808
-8.00044
-7.99676
-7.99263
-7.95568
-7.95731
-7.98246
-8.00184
-8.0013
-8.00968
-8.01797
-8.01573
-8.02109
-8.02735
-8.0274
-8.03352
-8.04145
-8.0432
-8.03499
-8.03164
-8.02839
-8.01932
-8.01298
-8.00296
-7.9846
-7.97522
-7.97283
-7.97278
-29.1169
-29.3153
-29.7183
-30.3266
-31.0938
-31.7982
-31.707
-29.0772
-22.455
-19.3411
-17.3984
-14.0568
-12.8812
-12.1999
-10.389
-9.84614
-9.40346
-7.9633
-7.73054
-8.12157
-8.36108
-8.03732
-8.08339
-8.16927
-7.95141
-8.00326
-8.0952
-8.00362
-8.10131
-8.26372
-8.30497
-8.11246
-8.07951
-8.08276
-7.98845
-7.99443
-8.01345
-7.96001
-7.96701
-7.97232
-7.91733
-7.92416
-7.96179
-7.98861
-7.98277
-7.99476
-8.00699
-8.00109
-8.00898
-8.01802
-8.01585
-8.02414
-8.03558
-8.03882
-8.02675
-8.02448
-8.02281
-8.01157
-8.00654
-7.99679
-7.97262
-7.9628
-7.96164
-7.96249
-29.3182
-29.5457
-30.0163
-30.7536
-31.7554
-32.8617
-33.3108
-30.7157
-21.8322
-18.9341
-17.4872
-13.2196
-12.413
-12.1493
-9.7732
-9.51108
-9.32746
-7.32648
-7.233
-7.91317
-8.31606
-7.79084
-7.92745
-8.11342
-7.76823
-7.88394
-8.04436
-7.87489
-8.01817
-8.25354
-8.32838
-8.0349
-8.02581
-8.06331
-7.92371
-7.9532
-7.99737
-7.91492
-7.93863
-7.9591
-7.87408
-7.88912
-7.94306
-7.97927
-7.96309
-7.98037
-7.9983
-7.98554
-7.99718
-8.01017
-8.00361
-8.01475
-8.03073
-8.03615
-8.01774
-8.01748
-8.01837
-8.0034
-8.00077
-7.9923
-7.95955
-7.94991
-7.95065
-7.95261
-29.4888
-29.7426
-30.2756
-31.1366
-32.3785
-33.9429
-35.1379
-32.8851
-20.664
-18.4049
-17.8413
-12.0874
-11.9128
-12.3026
-8.98196
-9.18297
-9.42842
-6.5347
-6.6826
-7.74033
-8.3618
-7.4918
-7.7735
-8.11073
-7.54889
-7.76543
-8.0272
-7.72176
-7.92974
-8.25917
-8.38599
-7.93347
-7.96989
-8.06156
-7.84554
-7.91227
-7.99402
-7.86158
-7.91172
-7.95647
-7.82305
-7.85178
-7.92675
-7.97528
-7.94098
-7.96647
-7.99283
-7.96827
-7.98568
-8.00445
-7.99012
-8.00521
-8.02702
-8.03578
-8.0073
-8.01059
-8.01556
-7.99433
-7.99571
-7.99026
-7.94474
-7.9365
-7.93996
-7.94325
-29.6295
-29.9063
-30.4947
-31.4694
-32.9463
-35.0102
-37.1897
-35.8328
-18.6748
-17.7493
-18.6333
-10.5162
-11.3845
-12.7737
-7.91705
-8.86514
-9.79952
-5.51104
-6.07592
-7.61324
-8.53612
-7.10503
-7.6213
-8.18675
-7.27095
-7.64802
-8.06034
-7.53031
-7.83441
-8.28232
-8.49177
-7.79361
-7.91147
-8.08672
-7.74596
-7.87171
-8.00948
-7.79451
-7.88637
-7.96945
-7.75997
-7.81191
-7.9134
-7.97863
-7.91453
-7.95301
-7.99197
-7.94798
-7.97448
-8.00179
-7.97457
-7.99542
-8.02454
-8.03861
-7.99446
-8.00376
-8.01508
-7.98359
-7.9914
-7.99173
-7.92723
-7.92255
-7.92967
-7.93446
-29.7417
-30.0376
-30.673
-31.7472
-33.4422
-36.0225
-39.4383
-39.9176
-15.4728
-16.976
-20.1107
-8.29398
-10.837
-13.7241
-6.43395
-8.56213
-10.5724
-4.14328
-5.41698
-7.54101
-8.89136
-6.57925
-7.47167
-8.37795
-6.90158
-7.53276
-8.16737
-7.28032
-7.73154
-8.3236
-8.66556
-7.59445
-7.85085
-8.15197
-7.61328
-7.83184
-8.0524
-7.70571
-7.86273
-8.00519
-7.6786
-7.76967
-7.90343
-7.9921
-7.88093
-7.93999
-7.99769
-7.92284
-7.96358
-8.00351
-7.95573
-7.98528
-8.02327
-8.04588
-7.9778
-7.99697
-8.01794
-7.97006
-7.98775
-7.99821
-7.90559
-7.90813
-7.91993
-7.92629
-29.8271
-30.1382
-30.8111
-31.9672
-33.8514
-36.9302
-41.8076
-45.6499
-10.51
-16.1151
-22.6181
-5.11703
-10.2875
-15.3781
-4.32591
-8.28079
-11.9296
-2.27089
-4.72341
-7.52886
-9.49941
-5.84172
-7.32734
-8.73521
-6.39391
-7.4221
-8.38105
-6.94312
-7.62258
-8.38148
-8.93519
-7.30666
-7.78941
-8.27574
-7.43082
-7.79341
-8.13486
-7.58377
-7.84105
-8.07359
-7.57005
-7.72595
-7.89709
-8.01948
-7.83619
-7.92749
-8.01273
-7.89019
-7.95309
-8.01144
-7.93191
-7.97482
-8.02306
-8.05934
-7.95533
-7.99019
-8.02557
-7.95219
-7.98466
-8.01183
-7.8778
-7.89347
-7.91088
-7.91878
-29.8877
-30.2099
-30.9105
-32.1284
-34.1624
-37.678
-44.1475
-53.7439
-3.03363
-15.2294
-26.6238
-0.559887
-9.76648
-18.0413
-1.3046
-8.03203
-14.1191
0.331278
-4.03506
-7.57366
-10.4581
-4.79179
-7.19429
-9.32798
-5.6826
-7.32069
-8.7459
-6.47867
-7.51274
-8.45072
-9.33921
-6.88986
-7.73019
-8.48319
-7.17531
-7.75791
-8.2734
-7.41288
-7.82185
-8.18821
-7.42193
-7.68292
-7.89419
-8.06604
-7.77488
-7.91582
-8.04091
-7.84641
-7.94322
-8.02813
-7.9008
-7.96432
-8.02355
-8.08148
-7.92441
-7.98354
-8.04003
-7.92787
-7.98193
-8.03552
-7.84108
-7.87916
-7.90273
-7.91204
-29.9257
-30.2551
-30.9736
-32.2321
-34.3685
-38.2121
-46.1993
-65.1805
7.972
-14.4288
-32.7503
5.95976
-9.32434
-22.1214
3.02265
-7.83318
-17.4719
3.973
-3.42576
-7.65746
-11.8992
-3.29326
-7.08332
-10.2491
-4.6786
-7.23662
-9.32118
-5.83219
-7.41331
-8.52032
-9.93023
-6.28966
-7.67881
-8.80791
-6.81511
-7.72804
-8.49026
-7.17168
-7.8061
-8.36726
-7.21733
-7.64472
-7.89389
-8.13897
-7.68977
-7.90562
-8.08745
-7.78671
-7.93451
-8.05711
-7.85936
-7.95453
-8.02412
-8.11585
-7.88159
-7.97735
-8.0642
-7.89444
-7.97936
-8.07338
-7.79174
-7.86631
-7.89581
-7.90624
-29.9434
-30.2762
-31.0035
-32.2817
-34.4692
-38.4898
-47.5521
-81.2829
23.8547
-13.8887
-41.8071
15.2216
-9.03972
-28.1508
9.17907
-7.71092
-22.4213
9.07265
-3.0184
-7.73823
-13.9979
-1.16524
-7.01191
-11.62
-3.26275
-7.18255
-10.1839
-4.9297
-7.34437
-8.5703
-10.7786
-5.43365
-7.64405
-9.29348
-6.30772
-7.70783
-8.81429
-6.83148
-7.79508
-8.63441
-6.9332
-7.61803
-7.89387
-8.24761
-7.57107
-7.89773
-8.15899
-7.70443
-7.92754
-8.10275
-7.80327
-7.94654
-8.02342
-8.16696
-7.8221
-7.97189
-8.10167
-7.84815
-7.97637
-8.13059
-7.72457
-7.85647
-7.89022
-7.90129
)
;

boundaryField
{
    left
    {
        type            calculated;
        value           nonuniform List<scalar> 
32
(
-21.7683
-21.8341
-21.9592
-22.1367
-22.3607
-22.6258
-22.927
-23.2597
-23.6192
-24.001
-24.4005
-24.8129
-25.2334
-25.6572
-26.0795
-26.4953
-26.9001
-27.2896
-27.6596
-28.0068
-28.3281
-28.6212
-28.8844
-29.1169
-29.3182
-29.4888
-29.6295
-29.7417
-29.8271
-29.8877
-29.9257
-29.9434
)
;
    }
    right
    {
        type            calculated;
        value           nonuniform List<scalar> 
32
(
-8.16843
-8.16672
-8.16347
-8.1589
-8.15317
-8.14646
-8.13891
-8.13064
-8.12177
-8.11239
-8.10259
-8.09244
-8.08203
-8.07139
-8.06058
-8.04964
-8.03861
-8.02751
-8.01639
-8.0053
-7.99428
-7.98341
-7.97278
-7.96249
-7.95261
-7.94325
-7.93446
-7.92629
-7.91878
-7.91204
-7.90624
-7.90129
)
;
    }
    interface
    {
        type            calculated;
        value           nonuniform List<scalar> 
64
(
-29.9475
-30.2811
-31.0105
-32.2935
-34.4935
-38.5604
-47.9913
-90.6898
33.2067
-13.7104
-47.182
20.6493
-8.94868
-31.728
12.789
-7.67297
-25.3564
12.0469
-2.88414
-7.77076
-15.2366
0.0818707
-6.98874
-12.4349
-2.43486
-7.16492
-10.6979
-4.40383
-7.32067
-8.58721
-11.2771
-4.93137
-7.63215
-9.58259
-6.01113
-7.70072
-9.00715
-6.63253
-7.79093
-8.79333
-6.76792
-7.60855
-7.8935
-8.31216
-7.50189
-7.89445
-8.20191
-7.65666
-7.92455
-8.13032
-7.77091
-7.94314
-8.0225
-8.19731
-7.78748
-7.96934
-8.12419
-7.82122
-7.97465
-8.16474
-7.68575
-7.8525
-7.88773
-7.89897
)
;
    }
    bottom
    {
        type            calculated;
        value           nonuniform List<scalar> 
64
(
-21.7511
-21.6697
-21.508
-21.268
-20.9532
-20.5684
-20.1199
-19.6154
-19.0641
-18.476
-17.8618
-17.2321
-16.5973
-15.967
-15.3496
-14.7521
-14.1804
-13.6386
-13.1299
-12.6558
-12.217
-11.8135
-11.4441
-11.1076
-10.8021
-10.5255
-10.2758
-10.0507
-9.84801
-9.66576
-9.50196
-9.35482
-9.22271
-9.10413
-8.99777
-8.90242
-8.81703
-8.74064
-8.67238
-8.61148
-8.55721
-8.50894
-8.46605
-8.42799
-8.39427
-8.3644
-8.33797
-8.31458
-8.29388
-8.27557
-8.25936
-8.24501
-8.23231
-8.22108
-8.21117
-8.20245
-8.19485
-8.18829
-8.18271
-8.17809
-8.1744
-8.17164
-8.1698
-8.16888
)
;
    }
    defaultFaces
    {
        type            empty;
    }
}


// ************************************************************************* //
