/*--------------------------------*- C++ -*----------------------------------*\
| =========                 |                                                 |
| \\      /  F ield         | OpenFOAM: The Open Source CFD Toolbox           |
|  \\    /   O peration     | Version:  5.x                                   |
|   \\  /    A nd           | Web:      www.OpenFOAM.org                      |
|    \\/     M anipulation  |                                                 |
\*---------------------------------------------------------------------------*/
FoamFile
{
    version     2.0;
    format      ascii;
    class       volScalarField;
    location    "0.9";
    object      gradTy;
}
// * * * * * * * * * * * * * * * * * * * * * * * * * * * * * * * * * * * * * //

dimensions      [0 -1 0 1 0 0 0];

internalField   nonuniform List<scalar> 
2048
(
-25.9365
-25.8955
-25.8145
-25.6945
-25.5381
-25.3481
-25.1284
-24.884
-24.62
-24.3425
-24.0573
-23.7702
-23.4866
-23.2111
-22.9475
-22.6988
-22.467
-22.2533
-22.0582
-21.8818
-21.7234
-21.5823
-21.4572
-21.3469
-21.2502
-21.1656
-21.092
-21.0281
-20.9727
-20.9248
-20.8835
-20.8479
-20.8172
-20.7909
-20.7683
-20.7489
-20.7322
-20.718
-20.7058
-20.6954
-20.6865
-20.679
-20.6725
-20.667
-20.6623
-20.6583
-20.6549
-20.652
-20.6495
-20.6474
-20.6455
-20.6439
-20.6425
-20.6413
-20.6402
-20.6393
-20.6384
-20.6377
-20.6371
-20.6365
-20.6361
-20.6358
-20.6356
-20.6354
-25.9682
-25.9268
-25.8445
-25.7228
-25.5638
-25.3706
-25.1471
-24.8982
-24.6294
-24.347
-24.057
-23.7656
-23.4781
-23.1995
-22.9334
-22.683
-22.4501
-22.2359
-22.0408
-21.8648
-21.7071
-21.5667
-21.4426
-21.3334
-21.2377
-21.1541
-21.0815
-21.0184
-20.9639
-20.9167
-20.8761
-20.8411
-20.8109
-20.785
-20.7628
-20.7438
-20.7275
-20.7135
-20.7015
-20.6913
-20.6826
-20.6752
-20.6689
-20.6635
-20.6589
-20.655
-20.6516
-20.6488
-20.6463
-20.6442
-20.6424
-20.6409
-20.6395
-20.6383
-20.6372
-20.6363
-20.6354
-20.6347
-20.6341
-20.6336
-20.6331
-20.6328
-20.6326
-20.6325
-26.0288
-25.9863
-25.9019
-25.7768
-25.613
-25.4136
-25.1827
-24.9253
-24.6473
-24.3554
-24.0563
-23.7564
-23.4616
-23.1769
-22.9062
-22.6525
-22.4177
-22.2026
-22.0076
-21.8323
-21.6759
-21.5373
-21.415
-21.3077
-21.214
-21.1324
-21.0616
-21.0002
-20.9472
-20.9015
-20.8621
-20.8282
-20.7991
-20.7741
-20.7526
-20.7342
-20.7184
-20.7049
-20.6934
-20.6836
-20.6752
-20.6681
-20.662
-20.6568
-20.6524
-20.6486
-20.6454
-20.6427
-20.6403
-20.6383
-20.6366
-20.6351
-20.6337
-20.6326
-20.6315
-20.6306
-20.6298
-20.6291
-20.6285
-20.6279
-20.6275
-20.6271
-20.6269
-20.6268
-26.1151
-26.0711
-25.9837
-25.8539
-25.6835
-25.4754
-25.2338
-24.964
-24.6727
-24.367
-24.0545
-23.7425
-23.4371
-23.1439
-22.8667
-22.6086
-22.3711
-22.155
-21.9602
-21.7862
-21.6317
-21.4955
-21.376
-21.2716
-21.1808
-21.1019
-21.0337
-20.9747
-20.9239
-20.8802
-20.8426
-20.8102
-20.7825
-20.7587
-20.7382
-20.7207
-20.7058
-20.693
-20.6821
-20.6727
-20.6648
-20.658
-20.6523
-20.6474
-20.6432
-20.6397
-20.6367
-20.6341
-20.6319
-20.63
-20.6283
-20.6269
-20.6257
-20.6245
-20.6235
-20.6227
-20.6219
-20.6211
-20.6205
-20.62
-20.6195
-20.6192
-20.619
-20.6188
-26.2244
-26.1788
-26.0879
-25.9524
-25.7737
-25.5547
-25.2993
-25.0136
-24.7047
-24.3811
-24.0513
-23.7234
-23.4046
-23.1005
-22.8153
-22.5517
-22.3112
-22.0941
-21.8999
-21.7277
-21.576
-21.4431
-21.3272
-21.2265
-21.1392
-21.0639
-20.999
-20.9431
-20.895
-20.8537
-20.8183
-20.7879
-20.7619
-20.7396
-20.7204
-20.7041
-20.6901
-20.6781
-20.6679
-20.6592
-20.6518
-20.6455
-20.6402
-20.6357
-20.6318
-20.6285
-20.6258
-20.6234
-20.6213
-20.6196
-20.6181
-20.6167
-20.6156
-20.6145
-20.6136
-20.6127
-20.6119
-20.6112
-20.6106
-20.6101
-20.6096
-20.6093
-20.609
-20.6089
-26.3544
-26.307
-26.2123
-26.0705
-25.8824
-25.6504
-25.3785
-25.0732
-24.7428
-24.397
-24.0458
-23.6987
-23.3637
-23.0467
-22.7522
-22.4825
-22.2388
-22.0209
-21.8279
-21.6582
-21.51
-21.3812
-21.2698
-21.1736
-21.0908
-21.0196
-20.9586
-20.9062
-20.8614
-20.8231
-20.7902
-20.7621
-20.738
-20.7174
-20.6997
-20.6847
-20.6718
-20.6608
-20.6514
-20.6435
-20.6367
-20.631
-20.6261
-20.622
-20.6185
-20.6155
-20.613
-20.6109
-20.609
-20.6074
-20.6061
-20.6048
-20.6038
-20.6028
-20.6019
-20.6011
-20.6003
-20.5996
-20.599
-20.5984
-20.598
-20.5976
-20.5973
-20.5972
-26.5029
-26.4539
-26.3555
-26.2071
-26.0087
-25.762
-25.471
-25.1425
-24.7862
-24.4139
-24.0373
-23.6676
-23.3137
-22.9821
-22.6773
-22.4012
-22.1544
-21.9362
-21.745
-21.5788
-21.435
-21.3113
-21.2051
-21.1142
-21.0364
-20.9701
-20.9135
-20.8652
-20.8241
-20.789
-20.759
-20.7334
-20.7115
-20.6928
-20.6768
-20.6631
-20.6514
-20.6415
-20.6331
-20.6259
-20.6198
-20.6147
-20.6104
-20.6067
-20.6036
-20.601
-20.5987
-20.5968
-20.5952
-20.5938
-20.5926
-20.5915
-20.5905
-20.5896
-20.5888
-20.588
-20.5873
-20.5866
-20.586
-20.5854
-20.5849
-20.5845
-20.5842
-20.5841
-26.668
-26.6176
-26.5158
-26.3611
-26.1521
-25.8894
-25.5766
-25.2212
-24.8347
-24.4311
-24.0249
-23.6291
-23.2539
-22.9063
-22.5905
-22.308
-22.0585
-21.8407
-21.6523
-21.4904
-21.3521
-21.2343
-21.1342
-21.0494
-20.9774
-20.9164
-20.8647
-20.8209
-20.7838
-20.7522
-20.7253
-20.7024
-20.6829
-20.6662
-20.6519
-20.6398
-20.6294
-20.6206
-20.6132
-20.6068
-20.6015
-20.597
-20.5932
-20.59
-20.5873
-20.5851
-20.5832
-20.5815
-20.5801
-20.5789
-20.5779
-20.5769
-20.576
-20.5752
-20.5745
-20.5738
-20.573
-20.5724
-20.5717
-20.5711
-20.5706
-20.5702
-20.5699
-20.5698
-26.8476
-26.7963
-26.692
-26.5316
-26.3123
-26.0327
-25.6957
-25.3095
-24.8877
-24.4478
-24.0075
-23.5822
-23.1834
-22.8187
-22.4916
-22.203
-21.9516
-21.7352
-21.5505
-21.3941
-21.2623
-21.1514
-21.0583
-20.9802
-20.9146
-20.8594
-20.8131
-20.7741
-20.7412
-20.7134
-20.6898
-20.6698
-20.6527
-20.6381
-20.6257
-20.6151
-20.6061
-20.5985
-20.592
-20.5866
-20.582
-20.5782
-20.575
-20.5723
-20.57
-20.5681
-20.5666
-20.5652
-20.564
-20.563
-20.5621
-20.5613
-20.5606
-20.5599
-20.5592
-20.5585
-20.5578
-20.5571
-20.5565
-20.5559
-20.5553
-20.5549
-20.5545
-20.5544
-27.0395
-26.9881
-26.8825
-26.718
-26.4891
-26.1923
-25.8288
-25.4075
-24.945
-24.4631
-23.9839
-23.5257
-23.1014
-22.7187
-22.3805
-22.0864
-21.8341
-21.6202
-21.4406
-21.2909
-21.1666
-21.0637
-20.9784
-20.9076
-20.8489
-20.8
-20.7594
-20.7254
-20.6971
-20.6732
-20.6531
-20.6359
-20.6214
-20.6089
-20.5984
-20.5894
-20.5818
-20.5754
-20.57
-20.5654
-20.5616
-20.5585
-20.5559
-20.5537
-20.5519
-20.5504
-20.5491
-20.5481
-20.5471
-20.5463
-20.5456
-20.545
-20.5444
-20.5437
-20.5431
-20.5425
-20.5418
-20.5411
-20.5405
-20.5398
-20.5392
-20.5387
-20.5383
-20.5382
-27.2415
-27.1911
-27.0861
-26.9196
-26.6828
-26.3689
-25.9769
-25.5158
-25.0063
-24.4762
-23.9529
-23.4583
-23.0068
-22.6058
-22.2569
-21.9584
-21.7065
-21.4965
-21.3233
-21.1816
-21.0661
-20.9721
-20.8953
-20.8326
-20.7811
-20.7389
-20.7042
-20.6756
-20.6519
-20.6321
-20.6155
-20.6013
-20.5893
-20.5791
-20.5704
-20.563
-20.5568
-20.5516
-20.5472
-20.5436
-20.5406
-20.5382
-20.5361
-20.5345
-20.5331
-20.532
-20.5311
-20.5303
-20.5296
-20.529
-20.5285
-20.528
-20.5275
-20.527
-20.5265
-20.5259
-20.5252
-20.5245
-20.5238
-20.5231
-20.5224
-20.5219
-20.5215
-20.5214
-27.4515
-27.4032
-27.3012
-27.1356
-26.8936
-26.5637
-26.1412
-25.6352
-25.0713
-24.4857
-23.9128
-23.3785
-22.8986
-22.4793
-22.1208
-21.8193
-21.5694
-21.3647
-21.1994
-21.0671
-20.9617
-20.8775
-20.8101
-20.7558
-20.7121
-20.6768
-20.6483
-20.6251
-20.6062
-20.5906
-20.5775
-20.5664
-20.5569
-20.5488
-20.542
-20.5362
-20.5314
-20.5274
-20.5241
-20.5214
-20.5191
-20.5174
-20.516
-20.5148
-20.5139
-20.5132
-20.5126
-20.5121
-20.5117
-20.5113
-20.5109
-20.5106
-20.5102
-20.5098
-20.5093
-20.5088
-20.5082
-20.5075
-20.5067
-20.5059
-20.5052
-20.5046
-20.5042
-20.504
-27.6669
-27.6223
-27.5262
-27.3654
-27.1219
-26.7781
-26.3236
-25.7667
-25.1396
-24.4903
-23.8621
-23.2849
-22.7755
-22.3389
-21.9723
-21.6696
-21.4233
-21.2257
-21.0698
-20.9484
-20.8542
-20.7809
-20.7234
-20.6782
-20.6425
-20.6143
-20.592
-20.5744
-20.5604
-20.549
-20.5395
-20.5314
-20.5244
-20.5185
-20.5134
-20.5092
-20.5058
-20.503
-20.5007
-20.4988
-20.4974
-20.4963
-20.4955
-20.4949
-20.4944
-20.4941
-20.4938
-20.4936
-20.4934
-20.4932
-20.4931
-20.4929
-20.4926
-20.4923
-20.4919
-20.4915
-20.4908
-20.4901
-20.4893
-20.4885
-20.4877
-20.487
-20.4865
-20.4863
-27.8852
-27.8462
-27.7593
-27.6081
-27.3684
-27.0139
-26.5265
-25.9118
-25.2108
-24.4882
-23.7986
-23.1756
-22.6367
-22.1842
-21.8115
-21.5097
-21.2691
-21.0801
-20.9352
-20.8263
-20.7447
-20.683
-20.6362
-20.6004
-20.5729
-20.5519
-20.536
-20.524
-20.5149
-20.5078
-20.5019
-20.4967
-20.4921
-20.4882
-20.4849
-20.4823
-20.4801
-20.4785
-20.4772
-20.4763
-20.4756
-20.4751
-20.4749
-20.4748
-20.4748
-20.4748
-20.4749
-20.4749
-20.475
-20.475
-20.475
-20.475
-20.4749
-20.4747
-20.4744
-20.4739
-20.4733
-20.4726
-20.4717
-20.4708
-20.4699
-20.4691
-20.4686
-20.4683
-28.1039
-28.0723
-27.9988
-27.8629
-27.6333
-27.2734
-26.7529
-26.0724
-25.2841
-24.4773
-23.7202
-23.0489
-22.4811
-22.015
-21.6386
-21.3403
-21.1075
-20.9288
-20.7965
-20.7016
-20.634
-20.5849
-20.5491
-20.5229
-20.5038
-20.4901
-20.4806
-20.4742
-20.4701
-20.4672
-20.4648
-20.4624
-20.4602
-20.4583
-20.4567
-20.4555
-20.4547
-20.4541
-20.4538
-20.4537
-20.4538
-20.454
-20.4543
-20.4547
-20.4551
-20.4555
-20.4559
-20.4562
-20.4565
-20.4567
-20.4569
-20.457
-20.457
-20.4569
-20.4567
-20.4563
-20.4558
-20.455
-20.4541
-20.453
-20.452
-20.451
-20.4505
-20.4502
-28.3204
-28.2983
-28.2423
-28.1283
-27.9173
-27.5591
-27.0069
-26.2511
-25.3582
-24.4548
-23.6246
-22.9029
-22.3078
-21.8314
-21.4543
-21.1622
-20.9394
-20.7723
-20.6542
-20.5753
-20.523
-20.4871
-20.4627
-20.4464
-20.4356
-20.4292
-20.4261
-20.4253
-20.4261
-20.4275
-20.4286
-20.4289
-20.4288
-20.4287
-20.4287
-20.429
-20.4294
-20.43
-20.4306
-20.4313
-20.4321
-20.4329
-20.4338
-20.4347
-20.4356
-20.4363
-20.437
-20.4375
-20.438
-20.4384
-20.4388
-20.439
-20.4392
-20.4392
-20.4391
-20.4388
-20.4382
-20.4375
-20.4365
-20.4352
-20.434
-20.4329
-20.4323
-20.4319
-28.5321
-28.5216
-28.4876
-28.403
-28.2204
-27.874
-27.2934
-26.4512
-25.4311
-24.4172
-23.5093
-22.7354
-22.1159
-21.6338
-21.259
-20.9763
-20.7661
-20.6115
-20.5089
-20.448
-20.4125
-20.3903
-20.3777
-20.3713
-20.3687
-20.3695
-20.3728
-20.3774
-20.3831
-20.3889
-20.3934
-20.3961
-20.3981
-20.3998
-20.4013
-20.4029
-20.4045
-20.4061
-20.4077
-20.4092
-20.4106
-20.412
-20.4135
-20.4149
-20.4161
-20.4172
-20.4181
-20.419
-20.4197
-20.4203
-20.4208
-20.4212
-20.4215
-20.4216
-20.4215
-20.4213
-20.4208
-20.42
-20.4189
-20.4175
-20.4161
-20.4148
-20.4141
-20.4136
-28.7365
-28.7395
-28.7322
-28.6848
-28.5424
-28.221
-27.6186
-26.6774
-25.4993
-24.3601
-23.3724
-22.5444
-21.9048
-21.4232
-21.0534
-20.7837
-20.5886
-20.4468
-20.3612
-20.3206
-20.3036
-20.2952
-20.2944
-20.2981
-20.3033
-20.3113
-20.3209
-20.3307
-20.3413
-20.3515
-20.3594
-20.3643
-20.368
-20.3714
-20.3743
-20.3772
-20.3801
-20.3826
-20.3851
-20.3873
-20.3893
-20.3913
-20.3934
-20.3952
-20.3969
-20.3983
-20.3995
-20.4005
-20.4014
-20.4022
-20.4028
-20.4034
-20.4038
-20.4041
-20.4041
-20.4039
-20.4035
-20.4027
-20.4015
-20.3999
-20.3982
-20.3967
-20.3958
-20.3953
-28.9313
-28.9497
-28.9733
-28.9714
-28.8826
-28.6033
-27.9903
-26.936
-25.5574
-24.2779
-23.2122
-22.3273
-21.6739
-21.2011
-20.8382
-20.5853
-20.4087
-20.2785
-20.2111
-20.1939
-20.1971
-20.2023
-20.2133
-20.2272
-20.2397
-20.2546
-20.2705
-20.2853
-20.3007
-20.3156
-20.3267
-20.3333
-20.3387
-20.3437
-20.3478
-20.352
-20.356
-20.3595
-20.3628
-20.3658
-20.3683
-20.3709
-20.3735
-20.3758
-20.3778
-20.3795
-20.381
-20.3822
-20.3833
-20.3843
-20.3851
-20.3858
-20.3863
-20.3867
-20.3868
-20.3867
-20.3863
-20.3855
-20.3843
-20.3824
-20.3804
-20.3786
-20.3776
-20.3771
-29.1146
-29.1497
-29.208
-29.2596
-29.2393
-29.0238
-28.4183
-27.2363
-25.5966
-24.164
-23.0287
-22.0811
-21.4228
-20.9699
-20.6138
-20.3825
-20.2283
-20.1067
-20.0586
-20.0688
-20.0944
-20.1119
-20.1347
-20.1589
-20.1778
-20.1996
-20.222
-20.241
-20.2614
-20.2812
-20.2956
-20.3033
-20.3102
-20.3166
-20.3218
-20.3272
-20.3325
-20.3368
-20.3409
-20.3446
-20.3476
-20.3507
-20.3539
-20.3567
-20.359
-20.361
-20.3627
-20.3642
-20.3654
-20.3665
-20.3674
-20.3683
-20.369
-20.3695
-20.3696
-20.3696
-20.3693
-20.3685
-20.3672
-20.3651
-20.3626
-20.3605
-20.3595
-20.3589
-29.2845
-29.3374
-29.4335
-29.5461
-29.6099
-29.4847
-28.9142
-27.5921
-25.603
-24.01
-22.8246
-21.8018
-21.1513
-20.7337
-20.3798
-20.1764
-20.0503
-19.9306
-19.9035
-19.9461
-19.9967
-20.024
-20.0587
-20.0938
-20.1176
-20.1464
-20.1754
-20.1979
-20.2233
-20.2485
-20.2662
-20.2742
-20.2823
-20.2904
-20.2963
-20.303
-20.3096
-20.3145
-20.3195
-20.3239
-20.3272
-20.3308
-20.3346
-20.3379
-20.3405
-20.3428
-20.3447
-20.3463
-20.3477
-20.349
-20.35
-20.351
-20.3519
-20.3524
-20.3527
-20.3528
-20.3525
-20.3518
-20.3505
-20.3481
-20.345
-20.3425
-20.3414
-20.3409
-29.4397
-29.5109
-29.6469
-29.8267
-29.9905
-29.9867
-29.4917
-28.0237
-25.5548
-23.8064
-22.6064
-21.4831
-20.859
-20.4984
-20.1348
-19.968
-19.8786
-19.7491
-19.745
-19.8272
-19.906
-19.9384
-19.9853
-20.0325
-20.0588
-20.0949
-20.1311
-20.1558
-20.1863
-20.2178
-20.2388
-20.2458
-20.2551
-20.2651
-20.2712
-20.2794
-20.2873
-20.2927
-20.2985
-20.3037
-20.307
-20.3111
-20.3157
-20.3195
-20.3223
-20.3248
-20.327
-20.3287
-20.3303
-20.3317
-20.3328
-20.3339
-20.335
-20.3357
-20.3359
-20.3361
-20.336
-20.3353
-20.334
-20.3313
-20.3274
-20.3245
-20.3235
-20.3231
-29.5791
-29.6685
-29.8454
-30.0972
-30.3756
-30.5288
-30.1663
-28.5618
-25.4185
-23.5425
-22.3874
-21.1153
-20.546
-20.2732
-19.8754
-19.7586
-19.7188
-19.5593
-19.582
-19.7135
-19.8245
-19.8543
-19.9148
-19.976
-20.0009
-20.0452
-20.0898
-20.1143
-20.1504
-20.1892
-20.214
-20.2178
-20.2286
-20.2409
-20.2466
-20.2563
-20.2659
-20.2713
-20.2781
-20.2841
-20.2872
-20.2919
-20.2972
-20.3016
-20.3044
-20.3072
-20.3097
-20.3114
-20.3131
-20.3147
-20.3159
-20.3172
-20.3184
-20.3192
-20.3195
-20.3198
-20.3199
-20.3191
-20.318
-20.315
-20.3099
-20.3068
-20.3057
-20.3057
-29.7021
-29.8091
-30.0266
-30.3529
-30.7585
-31.1069
-30.9544
-29.2527
-25.1431
-23.2071
-22.1906
-20.6826
-20.2121
-20.0715
-19.5948
-19.5491
-19.5793
-19.3564
-19.4133
-19.6066
-19.7555
-19.7699
-19.8468
-19.9258
-19.943
-19.9972
-20.0523
-20.073
-20.1154
-20.1631
-20.1923
-20.1899
-20.2027
-20.2181
-20.2222
-20.2338
-20.2456
-20.2502
-20.2582
-20.2654
-20.2678
-20.273
-20.2792
-20.2843
-20.2869
-20.29
-20.2928
-20.2945
-20.2964
-20.2982
-20.2994
-20.3008
-20.3022
-20.3032
-20.3033
-20.3039
-20.3041
-20.3034
-20.3025
-20.2993
-20.2925
-20.2892
-20.2884
-20.2886
-29.8083
-29.9319
-30.1883
-30.5892
-31.1309
-31.7127
-31.8713
-30.1657
-24.6522
-22.7894
-22.0531
-20.1598
-19.8578
-19.9133
-19.2809
-19.3404
-19.472
-19.1328
-19.2373
-19.5087
-19.7033
-19.6824
-19.7813
-19.8839
-19.8834
-19.9509
-20.0196
-20.0308
-20.081
-20.1398
-20.1746
-20.1613
-20.1773
-20.1972
-20.1978
-20.2121
-20.2265
-20.2295
-20.239
-20.2477
-20.2486
-20.2545
-20.2619
-20.2676
-20.2699
-20.2734
-20.2765
-20.2779
-20.2802
-20.2822
-20.2832
-20.2848
-20.2865
-20.2876
-20.2875
-20.2883
-20.2889
-20.288
-20.2876
-20.2844
-20.2751
-20.2719
-20.2714
-20.272
-29.898
-30.0366
-30.3291
-30.8016
-31.4833
-32.3334
-32.9278
-31.4036
-23.8333
-22.2812
-22.0316
-19.5071
-19.4843
-19.8274
-18.9143
-19.1335
-19.4141
-18.8762
-19.0527
-19.4222
-19.6738
-19.5871
-19.718
-19.8535
-19.8196
-19.9063
-19.9936
-19.9866
-20.0471
-20.1195
-20.1621
-20.131
-20.1524
-20.1788
-20.1729
-20.191
-20.2092
-20.2087
-20.2205
-20.2312
-20.2295
-20.2364
-20.2453
-20.2518
-20.2532
-20.2572
-20.2609
-20.2618
-20.2644
-20.2667
-20.2674
-20.2693
-20.2713
-20.2727
-20.2721
-20.2733
-20.2743
-20.273
-20.2734
-20.2706
-20.2577
-20.2548
-20.2549
-20.2558
-29.9713
-30.1232
-30.4477
-30.9864
-31.8058
-32.95
-34.1253
-33.1171
-22.5232
-21.6803
-22.2094
-18.6635
-19.0944
-19.8549
-18.4643
-18.9301
-19.43
-18.5679
-18.8588
-19.3495
-19.6749
-19.4766
-19.6568
-19.8389
-19.7478
-19.8633
-19.9768
-19.938
-20.0134
-20.1025
-20.1562
-20.0971
-20.128
-20.1638
-20.1467
-20.1705
-20.194
-20.1876
-20.2027
-20.2163
-20.2102
-20.2188
-20.2293
-20.2369
-20.2368
-20.2415
-20.2459
-20.2461
-20.249
-20.2518
-20.252
-20.2542
-20.2566
-20.2582
-20.257
-20.2586
-20.2602
-20.2582
-20.2597
-20.2579
-20.2399
-20.2379
-20.2389
-20.24
-30.0291
-30.1921
-30.5438
-31.1406
-32.0881
-33.5378
-35.4474
-35.5237
-20.4892
-20.9944
-22.7051
-17.5379
-18.6946
-20.053
-17.885
-18.7323
-19.554
-18.1804
-18.6568
-19.293
-19.7176
-19.3403
-19.5978
-19.8466
-19.6623
-19.822
-19.9725
-19.8822
-19.9796
-20.0888
-20.1594
-20.0572
-20.1038
-20.1533
-20.1181
-20.1507
-20.1815
-20.1653
-20.1854
-20.2033
-20.1902
-20.2014
-20.2139
-20.2229
-20.2204
-20.2262
-20.2315
-20.2304
-20.234
-20.2374
-20.2368
-20.2394
-20.2422
-20.2443
-20.242
-20.2443
-20.2467
-20.2435
-20.2466
-20.2469
-20.2213
-20.2211
-20.2232
-20.2245
-30.0723
-30.2441
-30.6175
-31.2622
-32.3212
-34.0666
-36.8483
-38.9322
-17.4055
-20.2486
-23.6823
-15.9979
-18.2966
-20.5004
-17.1098
-18.5446
-19.833
-17.6739
-18.4513
-19.254
-19.8169
-19.1631
-19.5416
-19.8852
-19.5549
-19.7828
-19.9857
-19.8146
-19.9461
-20.078
-20.1746
-20.0077
-20.0801
-20.1491
-20.0853
-20.1314
-20.1726
-20.1409
-20.1686
-20.1928
-20.1689
-20.1842
-20.1991
-20.21
-20.2037
-20.2112
-20.2179
-20.2147
-20.2193
-20.2235
-20.2216
-20.2248
-20.2281
-20.231
-20.2268
-20.2302
-20.2338
-20.2286
-20.2338
-20.2377
-20.2013
-20.2044
-20.2079
-20.2093
-30.1018
-30.2802
-30.6695
-31.3504
-32.4979
-34.5033
-38.2377
-43.7742
-12.8232
-19.4938
-25.3614
-13.856
-17.9216
-21.3028
-16.0448
-18.3744
-20.3305
-16.9923
-18.2524
-19.2326
-19.993
-18.9241
-19.4897
-19.967
-19.4144
-19.7465
-20.023
-19.7292
-19.9136
-20.0698
-20.2065
-19.9439
-20.0572
-20.1535
-20.0462
-20.1129
-20.1686
-20.1133
-20.1524
-20.1855
-20.1455
-20.1674
-20.1847
-20.1984
-20.1864
-20.1965
-20.2051
-20.1987
-20.2049
-20.2102
-20.2063
-20.2104
-20.2143
-20.2182
-20.2115
-20.2162
-20.2216
-20.2132
-20.2213
-20.2313
-20.1791
-20.1879
-20.1931
-20.1946
-30.1189
-30.3018
-30.7014
-31.4061
-32.6141
-34.8149
-39.4596
-50.6412
-6.1349
-18.8191
-28.0321
-10.8533
-17.6042
-22.5999
-14.5614
-18.2343
-21.1309
-16.0587
-18.0789
-19.2258
-20.2737
-18.5954
-19.4455
-20.1083
-19.2259
-19.7152
-20.0936
-19.6184
-19.8842
-20.0632
-20.2616
-19.8598
-20.0364
-20.1703
-19.9982
-20.0959
-20.1716
-20.081
-20.1373
-20.183
-20.1194
-20.1517
-20.1713
-20.1889
-20.1685
-20.1826
-20.1938
-20.1827
-20.1912
-20.1981
-20.1913
-20.1967
-20.2011
-20.2068
-20.1961
-20.2029
-20.2108
-20.1976
-20.2092
-20.229
-20.1543
-20.1722
-20.1791
-20.1809
-30.125
-30.3099
-30.7147
-31.4309
-32.6691
-34.9756
-40.266
-60.3307
3.46809
-18.3657
-32.0662
-6.64019
-17.398
-24.5713
-12.4861
-18.1434
-22.3432
-14.7681
-17.9612
-19.225
-20.6949
-18.1391
-19.4135
-20.33
-18.9686
-19.6913
-20.2089
-19.4707
-19.8607
-20.0558
-20.3477
-19.7469
-20.0188
-20.2034
-19.937
-20.0807
-20.1838
-20.0418
-20.1233
-20.1867
-20.089
-20.1372
-20.1584
-20.1819
-20.1494
-20.1693
-20.1841
-20.1662
-20.178
-20.1872
-20.1761
-20.1835
-20.1883
-20.1966
-20.1803
-20.19
-20.2016
-20.1811
-20.1972
-20.2319
-20.1254
-20.1576
-20.1659
-20.1679
)
;

boundaryField
{
    left
    {
        type            calculated;
        value           nonuniform List<scalar> 
32
(
-25.9365
-25.9682
-26.0288
-26.1151
-26.2244
-26.3544
-26.5029
-26.668
-26.8476
-27.0395
-27.2415
-27.4515
-27.6669
-27.8852
-28.1039
-28.3204
-28.5321
-28.7365
-28.9313
-29.1146
-29.2845
-29.4397
-29.5791
-29.7021
-29.8083
-29.898
-29.9713
-30.0291
-30.0723
-30.1018
-30.1189
-30.125
)
;
    }
    right
    {
        type            calculated;
        value           nonuniform List<scalar> 
32
(
-20.6354
-20.6325
-20.6268
-20.6188
-20.6089
-20.5972
-20.5841
-20.5698
-20.5544
-20.5382
-20.5214
-20.504
-20.4863
-20.4683
-20.4502
-20.4319
-20.4136
-20.3953
-20.3771
-20.3589
-20.3409
-20.3231
-20.3057
-20.2886
-20.272
-20.2558
-20.24
-20.2245
-20.2093
-20.1946
-20.1809
-20.1679
)
;
    }
    interface
    {
        type            calculated;
        value           nonuniform List<scalar> 
64
(
-30.1254
-30.3109
-30.7169
-31.4359
-32.6815
-35.0156
-40.5276
-65.995
9.11334
-18.2158
-34.4761
-4.18096
-17.3308
-25.7507
-11.2757
-18.1131
-23.0676
-14.0185
-17.9209
-19.2246
-20.9456
-17.8737
-19.4012
-20.4638
-18.8197
-19.6816
-20.2792
-19.3859
-19.8508
-20.0513
-20.3996
-19.682
-20.0108
-20.2245
-19.9025
-20.0735
-20.1923
-20.0201
-20.1166
-20.1901
-20.0723
-20.1302
-20.152
-20.1789
-20.1393
-20.1627
-20.1796
-20.1576
-20.1715
-20.182
-20.1683
-20.177
-20.1818
-20.1918
-20.1722
-20.1835
-20.1972
-20.1724
-20.1909
-20.2348
-20.1095
-20.1506
-20.1593
-20.1614
)
;
    }
    bottom
    {
        type            calculated;
        value           nonuniform List<scalar> 
64
(
-25.9282
-25.8874
-25.8066
-25.6872
-25.5314
-25.3422
-25.1236
-24.8803
-24.6176
-24.3413
-24.0573
-23.7714
-23.4888
-23.2141
-22.9512
-22.7029
-22.4714
-22.2578
-22.0628
-21.8862
-21.7277
-21.5863
-21.461
-21.3504
-21.2534
-21.1686
-21.0948
-21.0306
-20.975
-20.9269
-20.8854
-20.8496
-20.8189
-20.7924
-20.7697
-20.7502
-20.7335
-20.7192
-20.707
-20.6965
-20.6876
-20.68
-20.6735
-20.6679
-20.6632
-20.6592
-20.6558
-20.6529
-20.6503
-20.6482
-20.6463
-20.6447
-20.6433
-20.6421
-20.641
-20.64
-20.6392
-20.6385
-20.6378
-20.6373
-20.6369
-20.6366
-20.6363
-20.6362
)
;
    }
    defaultFaces
    {
        type            empty;
    }
}


// ************************************************************************* //
