/*--------------------------------*- C++ -*----------------------------------*\
| =========                 |                                                 |
| \\      /  F ield         | OpenFOAM: The Open Source CFD Toolbox           |
|  \\    /   O peration     | Version:  5.x                                   |
|   \\  /    A nd           | Web:      www.OpenFOAM.org                      |
|    \\/     M anipulation  |                                                 |
\*---------------------------------------------------------------------------*/
FoamFile
{
    version     2.0;
    format      ascii;
    class       volScalarField;
    location    "6.2";
    object      gradTy;
}
// * * * * * * * * * * * * * * * * * * * * * * * * * * * * * * * * * * * * * //

dimensions      [0 -1 0 1 0 0 0];

internalField   nonuniform List<scalar> 
2048
(
-20.2282
-20.1321
-19.941
-19.657
-19.2838
-18.8263
-18.2914
-17.6874
-17.0244
-16.3134
-15.5666
-14.796
-14.0135
-13.2304
-12.4567
-11.7011
-10.9707
-10.2713
-9.60691
-8.98033
-8.39308
-7.84558
-7.33744
-6.86755
-6.43435
-6.03592
-5.67014
-5.3348
-5.02766
-4.74657
-4.48946
-4.25444
-4.03975
-3.84381
-3.66519
-3.50259
-3.35486
-3.2209
-3.09972
-2.99036
-2.89194
-2.80359
-2.72448
-2.65382
-2.59085
-2.53483
-2.48507
-2.44092
-2.40179
-2.36713
-2.33645
-2.3093
-2.28531
-2.26414
-2.24552
-2.22923
-2.21507
-2.20291
-2.19263
-2.18417
-2.17745
-2.17243
-2.16911
-2.16744
-20.3059
-20.209
-20.0161
-19.7292
-19.3519
-18.889
-18.3472
-17.7352
-17.0631
-16.3425
-15.5858
-14.8055
-14.014
-13.2228
-12.4421
-11.6806
-10.9457
-10.2429
-9.57629
-8.9485
-8.36088
-7.81372
-7.30645
-6.83784
-6.40618
-6.00947
-5.64548
-5.31193
-5.00655
-4.72712
-4.47156
-4.23794
-4.02453
-3.82974
-3.65216
-3.49052
-3.34366
-3.21051
-3.09009
-2.98146
-2.88373
-2.79605
-2.71759
-2.64755
-2.58517
-2.5297
-2.48047
-2.43681
-2.39812
-2.36386
-2.33353
-2.30669
-2.28296
-2.26202
-2.24359
-2.22744
-2.2134
-2.20133
-2.19112
-2.1827
-2.17601
-2.17102
-2.1677
-2.16605
-20.4536
-20.3551
-20.1589
-19.8668
-19.4818
-19.0085
-18.4538
-17.8263
-17.1368
-16.3976
-15.6219
-14.8231
-14.0143
-13.2076
-12.4135
-11.641
-10.8974
-10.1884
-9.51763
-8.88763
-8.29944
-7.75303
-7.24752
-6.78142
-6.35277
-5.95936
-5.59881
-5.26871
-4.96666
-4.69039
-4.43776
-4.20683
-3.99583
-3.80321
-3.6276
-3.46774
-3.32251
-3.19089
-3.0719
-2.96464
-2.86822
-2.78181
-2.70457
-2.6357
-2.57444
-2.52004
-2.47179
-2.42905
-2.3912
-2.35769
-2.32804
-2.30179
-2.27856
-2.25804
-2.23996
-2.22409
-2.21026
-2.19835
-2.18827
-2.17993
-2.1733
-2.16835
-2.16506
-2.16341
-20.663
-20.5625
-20.3619
-20.0626
-19.6669
-19.1792
-18.606
-17.9564
-17.2417
-16.4756
-15.6724
-14.8469
-14.0133
-13.1843
-12.3711
-11.5831
-10.8275
-10.1097
-9.43334
-8.80049
-8.21176
-7.66666
-7.16388
-6.70151
-6.27727
-5.88865
-5.53307
-5.20791
-4.91064
-4.63887
-4.39039
-4.16322
-3.95561
-3.76603
-3.59315
-3.43577
-3.29283
-3.16333
-3.04635
-2.941
-2.84642
-2.76178
-2.68626
-2.61906
-2.55938
-2.50647
-2.45963
-2.41819
-2.38152
-2.34909
-2.32037
-2.29495
-2.27243
-2.2525
-2.2349
-2.21941
-2.20588
-2.1942
-2.18428
-2.17606
-2.16951
-2.1646
-2.16134
-2.15971
-20.9268
-20.824
-20.6185
-20.3107
-19.9022
-19.3966
-18.7999
-18.1218
-17.3747
-16.5735
-15.7348
-14.8749
-14.0093
-13.152
-12.3148
-11.5072
-10.7366
-10.0082
-9.32523
-8.68925
-8.10029
-7.55728
-7.0583
-6.60093
-6.18248
-5.8001
-5.4509
-5.13207
-4.84088
-4.57481
-4.33155
-4.10909
-3.90568
-3.71986
-3.55034
-3.39602
-3.25588
-3.129
-3.0145
-2.91152
-2.81923
-2.73681
-2.66345
-2.59832
-2.54064
-2.48962
-2.44454
-2.40472
-2.36955
-2.33845
-2.31092
-2.28652
-2.26488
-2.24568
-2.22867
-2.21365
-2.20049
-2.18907
-2.17934
-2.17125
-2.16479
-2.15994
-2.15671
-2.15509
-21.2386
-21.1336
-20.923
-20.6062
-20.1834
-19.6569
-19.0324
-18.3198
-17.533
-16.689
-15.8067
-14.9048
-14.0008
-13.1096
-12.2439
-11.4133
-10.6254
-9.88488
-9.19468
-8.55565
-7.96711
-7.42718
-6.93323
-6.48222
-6.07094
-5.69617
-5.35472
-5.0435
-4.7596
-4.5003
-4.2632
-4.04625
-3.84772
-3.66622
-3.50056
-3.34974
-3.21283
-3.08897
-2.97732
-2.87709
-2.78747
-2.70765
-2.63682
-2.57414
-2.5188
-2.47001
-2.42701
-2.38912
-2.35569
-2.32615
-2.30001
-2.27682
-2.2562
-2.23785
-2.22152
-2.20703
-2.19427
-2.18314
-2.17362
-2.16567
-2.1593
-2.15451
-2.15131
-2.1497
-21.5923
-21.4855
-21.2704
-20.9449
-20.5071
-19.9577
-19.3014
-18.5484
-17.7145
-16.8197
-15.8859
-14.9347
-13.9858
-13.0557
-12.1574
-11.3011
-10.4939
-9.74037
-9.04277
-8.4012
-7.81403
-7.27843
-6.79088
-6.34764
-5.94493
-5.57913
-5.24671
-4.94432
-4.6688
-4.41725
-4.18714
-3.97635
-3.78323
-3.60648
-3.44507
-3.29808
-3.16471
-3.04417
-2.93569
-2.83851
-2.75186
-2.67496
-2.60699
-2.54709
-2.49442
-2.44815
-2.40751
-2.37178
-2.34032
-2.31256
-2.28798
-2.26614
-2.24666
-2.22924
-2.21366
-2.19974
-2.18741
-2.17659
-2.16727
-2.15946
-2.15317
-2.14843
-2.14526
-2.14367
-21.9821
-21.8743
-21.6561
-21.323
-20.8705
-20.2969
-19.6052
-18.8061
-17.9176
-16.9635
-15.97
-14.9623
-13.9625
-12.9887
-12.0545
-11.17
-10.3422
-9.57515
-8.87042
-8.22719
-7.6427
-7.11292
-6.6333
-6.1993
-5.80655
-5.45101
-5.12885
-4.83643
-4.57033
-4.32742
-4.105
-3.90092
-3.7136
-3.5419
-3.38497
-3.24205
-3.11245
-2.99545
-2.89037
-2.79648
-2.71306
-2.63934
-2.57451
-2.51768
-2.46796
-2.42448
-2.38643
-2.35309
-2.3238
-2.29798
-2.2751
-2.25473
-2.23649
-2.22008
-2.20529
-2.19197
-2.18007
-2.16955
-2.16043
-2.15275
-2.14653
-2.14183
-2.13868
-2.13709
-22.4027
-22.2951
-22.0757
-21.7373
-21.2717
-20.6734
-19.9433
-19.092
-18.1408
-17.1185
-16.0567
-14.9851
-13.9288
-12.9071
-11.9341
-11.0197
-10.1703
-9.38962
-8.67841
-8.03481
-7.45465
-6.93243
-6.46242
-6.03916
-5.65773
-5.3137
-5.00295
-4.72157
-4.46587
-4.23241
-4.01829
-3.82132
-3.64005
-3.47358
-3.32125
-3.18254
-3.05684
-2.94356
-2.84203
-2.75161
-2.67161
-2.60131
-2.53986
-2.48636
-2.43985
-2.39939
-2.36416
-2.33339
-2.30642
-2.28268
-2.26164
-2.24284
-2.22592
-2.21057
-2.19659
-2.18388
-2.1724
-2.16217
-2.15323
-2.14564
-2.13948
-2.1348
-2.13166
-2.13007
-22.8484
-22.7426
-22.5251
-22.1848
-21.7089
-21.0866
-20.3154
-19.4057
-18.3829
-17.2826
-16.1436
-15.0009
-13.8826
-12.8095
-11.7954
-10.8497
-9.97827
-9.18411
-8.46746
-7.8252
-7.25137
-6.73871
-6.28006
-5.86907
-5.50026
-5.16889
-4.87063
-4.60131
-4.35693
-4.13369
-3.9284
-3.73881
-3.56369
-3.40247
-3.25478
-3.12032
-2.99862
-2.88913
-2.79127
-2.70444
-2.62801
-2.56131
-2.50348
-2.45355
-2.41047
-2.37325
-2.341
-2.31296
-2.28847
-2.26692
-2.24781
-2.23068
-2.21514
-2.20088
-2.18773
-2.17561
-2.16453
-2.15455
-2.14575
-2.13823
-2.1321
-2.12742
-2.12428
-2.12269
-23.3138
-23.212
-23.0002
-22.663
-22.181
-21.5368
-20.7223
-19.7475
-18.643
-17.454
-16.2282
-15.007
-13.8219
-12.6943
-11.6374
-10.6597
-9.76604
-8.95896
-8.23824
-7.59944
-7.03436
-6.53345
-6.08803
-5.69079
-5.33579
-5.01813
-4.73335
-4.47705
-4.2449
-4.03261
-3.83657
-3.6545
-3.4855
-3.32942
-3.18629
-3.05605
-2.93838
-2.83275
-2.73862
-2.65545
-2.58269
-2.51974
-2.46574
-2.4196
-2.38017
-2.34637
-2.31727
-2.29209
-2.27016
-2.25091
-2.23382
-2.21842
-2.20431
-2.19117
-2.17883
-2.16728
-2.15656
-2.14679
-2.1381
-2.13061
-2.12447
-2.11977
-2.11662
-2.11502
-23.7933
-23.6982
-23.497
-23.1691
-22.6873
-22.0246
-21.1656
-20.1182
-18.9202
-17.6303
-16.3076
-15.0006
-13.7444
-12.5603
-11.4597
-10.4496
-9.53384
-8.71447
-7.99135
-7.35863
-6.80511
-6.31838
-5.88807
-5.50599
-5.16584
-4.86281
-4.59241
-4.35003
-4.131
-3.9304
-3.744
-3.56942
-3.40631
-3.25514
-3.1164
-2.99032
-2.87666
-2.7749
-2.68453
-2.60504
-2.536
-2.47692
-2.42694
-2.38483
-2.34926
-2.31904
-2.29321
-2.27098
-2.25171
-2.23484
-2.21984
-2.20623
-2.19359
-2.18157
-2.17003
-2.159
-2.14859
-2.13898
-2.13034
-2.12283
-2.11665
-2.1119
-2.10873
-2.10712
-24.2813
-24.1959
-24.0113
-23.7007
-23.2272
-22.5518
-21.6475
-20.519
-19.2137
-17.809
-16.3787
-14.9789
-13.6482
-12.4063
-11.2618
-10.2196
-9.28201
-8.45094
-7.72732
-7.10386
-6.56521
-6.09523
-5.68191
-5.31627
-4.99182
-4.70416
-4.44893
-4.22131
-4.01633
-3.82824
-3.65178
-3.48447
-3.32685
-3.18024
-3.04562
-2.92358
-2.81393
-2.71603
-2.6294
-2.55358
-2.48824
-2.43312
-2.38738
-2.34953
-2.318
-2.29151
-2.26906
-2.24985
-2.2333
-2.21885
-2.206
-2.19424
-2.18311
-2.17221
-2.16143
-2.15085
-2.1407
-2.13117
-2.12253
-2.11496
-2.10869
-2.10388
-2.10068
-2.09905
-24.7722
-24.7
-24.5388
-24.2551
-23.8006
-23.1204
-22.1716
-20.9522
-19.5225
-17.9873
-16.4382
-14.9388
-13.5311
-12.2317
-11.0436
-9.97004
-9.0111
-8.16858
-7.44653
-6.83624
-6.31635
-5.86579
-5.47124
-5.12316
-4.81497
-4.54326
-4.30388
-4.09178
-3.90187
-3.72721
-3.56095
-3.40045
-3.24773
-3.10519
-2.97435
-2.85623
-2.75058
-2.65651
-2.5736
-2.50136
-2.43964
-2.38855
-2.34728
-2.31395
-2.28665
-2.26401
-2.245
-2.22886
-2.21505
-2.20308
-2.19243
-2.18257
-2.17299
-2.1632
-2.15311
-2.14292
-2.13294
-2.12344
-2.11474
-2.10705
-2.10065
-2.09573
-2.09249
-2.09085
-25.2604
-25.2052
-25.0749
-24.8294
-24.4071
-23.7335
-22.7426
-21.4206
-19.8451
-18.1613
-16.4824
-14.8768
-13.3912
-12.0359
-10.8054
-9.7018
-8.72194
-7.86746
-7.14916
-6.55694
-6.06042
-5.63186
-5.25773
-4.92814
-4.63639
-4.38101
-4.15809
-3.96216
-3.78844
-3.62838
-3.47257
-3.31806
-3.1694
-3.03036
-2.90287
-2.78858
-2.68697
-2.59668
-2.51744
-2.44869
-2.39039
-2.34337
-2.30684
-2.27833
-2.25543
-2.23674
-2.22123
-2.20814
-2.1971
-2.18763
-2.1792
-2.17131
-2.16333
-2.15464
-2.14514
-2.13524
-2.12537
-2.11581
-2.10699
-2.09912
-2.09254
-2.08749
-2.08422
-2.08258
-25.7404
-25.7061
-25.615
-25.4204
-25.0465
-24.3945
-23.3665
-21.9283
-20.1791
-18.3267
-16.5074
-14.7892
-13.2267
-11.8192
-10.5476
-9.41603
-8.41578
-7.54736
-6.83501
-6.26723
-5.79957
-5.39525
-5.04299
-4.73266
-4.45701
-4.21815
-4.01227
-3.83293
-3.67671
-3.53282
-3.38769
-3.23785
-3.09218
-2.95606
-2.83136
-2.72086
-2.62343
-2.53683
-2.46122
-2.39581
-2.3406
-2.29765
-2.26625
-2.24291
-2.22454
-2.20988
-2.1979
-2.18782
-2.17954
-2.17259
-2.1664
-2.16054
-2.15424
-2.14661
-2.1376
-2.12788
-2.11803
-2.10832
-2.09932
-2.09122
-2.08438
-2.07917
-2.07589
-2.07427
-26.2071
-26.1974
-26.1539
-26.0242
-25.7181
-25.1076
-24.0516
-22.4808
-20.521
-18.4779
-16.5097
-14.6719
-13.0359
-11.5825
-10.2708
-9.11436
-8.09449
-7.20756
-6.5034
-5.96851
-5.53636
-5.1577
-4.82854
-4.53819
-4.27748
-4.05526
-3.86705
-3.70434
-3.56717
-3.44165
-3.30749
-3.16022
-3.01626
-2.88251
-2.75989
-2.65324
-2.5603
-2.47718
-2.40522
-2.34301
-2.29031
-2.25142
-2.22566
-2.20793
-2.19418
-2.18358
-2.17514
-2.16798
-2.16242
-2.15801
-2.15406
-2.15031
-2.14579
-2.13921
-2.1305
-2.12085
-2.11094
-2.10098
-2.09176
-2.08339
-2.0762
-2.0708
-2.06753
-2.06597
-26.6553
-26.6741
-26.6865
-26.6366
-26.4204
-25.8774
-24.8081
-23.0857
-20.8645
-18.6079
-16.4861
-14.5201
-12.8175
-11.3282
-9.97553
-8.79884
-7.76091
-6.84658
-6.1529
-5.66252
-5.27401
-4.92071
-4.61575
-4.34632
-4.09818
-3.89276
-3.72312
-3.57631
-3.4601
-3.35613
-3.23332
-3.08532
-2.94161
-2.80995
-2.68837
-2.58586
-2.49796
-2.41792
-2.3497
-2.2906
-2.23946
-2.20459
-2.18522
-2.17367
-2.16448
-2.15798
-2.15309
-2.14866
-2.14579
-2.14394
-2.14219
-2.14066
-2.13809
-2.13254
-2.12386
-2.11416
-2.10415
-2.09381
-2.08433
-2.07565
-2.06799
-2.06236
-2.05916
-2.05772
-27.0807
-27.131
-27.2072
-27.2522
-27.1512
-26.7083
-25.6491
-23.754
-21.1996
-18.708
-16.4354
-14.3275
-12.5701
-11.0603
-9.66136
-8.47201
-7.41947
-6.46162
-5.78107
-5.35145
-5.01665
-4.68532
-4.40581
-4.15894
-3.919
-3.73089
-3.58131
-3.44836
-3.35547
-3.27771
-3.16687
-3.01291
-2.86804
-2.73872
-2.61652
-2.51875
-2.43688
-2.35908
-2.29494
-2.23902
-2.18788
-2.15699
-2.14511
-2.14044
-2.13558
-2.13317
-2.13189
-2.12988
-2.12969
-2.13046
-2.13077
-2.13159
-2.13124
-2.1267
-2.11768
-2.10781
-2.09767
-2.08679
-2.07705
-2.06805
-2.05974
-2.05385
-2.0508
-2.04956
-27.4794
-27.5637
-27.7106
-27.8652
-27.9066
-27.6045
-26.591
-24.5013
-21.5102
-18.7679
-16.3597
-14.0857
-12.2926
-10.7855
-9.32641
-8.1368
-7.07712
-6.04784
-5.38417
-5.03824
-4.76982
-4.45167
-4.19963
-3.97853
-3.73911
-3.56972
-3.44291
-3.31941
-3.25292
-3.20811
-3.11037
-2.94217
-2.7951
-2.66939
-2.54377
-2.45194
-2.37777
-2.30055
-2.24119
-2.18886
-2.1352
-2.10831
-2.10554
-2.10867
-2.10751
-2.10924
-2.11171
-2.1116
-2.1141
-2.11762
-2.11974
-2.1231
-2.12535
-2.12184
-2.11187
-2.10176
-2.09158
-2.07988
-2.06994
-2.06067
-2.05142
-2.04525
-2.04248
-2.04154
-27.848
-27.9681
-28.191
-28.4685
-28.6811
-28.5689
-27.6536
-25.3515
-21.7703
-18.7751
-16.2668
-13.7821
-11.9842
-10.5152
-8.96557
-7.79654
-6.74485
-5.59718
-4.95679
-4.72692
-4.54107
-4.2183
-3.99776
-3.80866
-3.55656
-3.40916
-3.30998
-3.18754
-3.15158
-3.14948
-3.06688
-2.87138
-2.72213
-2.60304
-2.46912
-2.38537
-2.32164
-2.24188
-2.18871
-2.14105
-2.08078
-2.05812
-2.06678
-2.0789
-2.08021
-2.08624
-2.09277
-2.09371
-2.09902
-2.10553
-2.109
-2.11514
-2.12056
-2.11815
-2.10632
-2.09599
-2.08595
-2.07302
-2.063
-2.05361
-2.04298
-2.03651
-2.03422
-2.03374
-28.184
-28.3406
-28.643
-29.0546
-29.4667
-29.6019
-28.8607
-26.34
-21.9394
-18.715
-16.1742
-13.3976
-11.6439
-10.2673
-8.56829
-7.45487
-6.43988
-5.09655
-4.49162
-4.42298
-4.34093
-3.98113
-3.80038
-3.65476
-3.36764
-3.24897
-3.18598
-3.04957
-3.05004
-3.10445
-3.04074
-2.79737
-2.6482
-2.54157
-2.39084
-2.31893
-2.27014
-2.18212
-2.13774
-2.09702
-2.02357
-2.0058
-2.02921
-2.05189
-2.05344
-2.06416
-2.07542
-2.076
-2.08443
-2.09437
-2.09834
-2.10763
-2.11704
-2.11592
-2.1008
-2.09044
-2.08094
-2.06606
-2.05626
-2.04703
-2.03431
-2.02759
-2.02606
-2.02621
-28.4856
-28.6785
-29.0616
-29.6152
-30.2532
-30.7005
-30.239
-27.5211
-21.9542
-18.5717
-16.1144
-12.9016
-11.2708
-10.0702
-8.11501
-7.11563
-6.18896
-4.52517
-3.97931
-4.13383
-4.18422
-3.73198
-3.60719
-3.52522
-3.16589
-3.08877
-3.0765
-2.9005
-2.94617
-3.07623
-3.03826
-2.71487
-2.57216
-2.48826
-2.30612
-2.25249
-2.22576
-2.11953
-2.08853
-2.05899
-1.96188
-1.9506
-1.99337
-2.02871
-2.02671
-2.04298
-2.06016
-2.0581
-2.07029
-2.08446
-2.08749
-2.10044
-2.115
-2.11555
-2.09492
-2.08504
-2.07681
-2.05878
-2.04973
-2.04119
-2.02525
-2.01842
-2.01805
-2.01904
-28.7518
-28.9797
-29.4424
-30.1417
-31.0277
-31.8563
-31.8168
-28.9772
-21.7189
-18.3283
-16.143
-12.2461
-10.8644
-9.96771
-7.57215
-6.78274
-6.03298
-3.85063
-3.40883
-3.8691
-4.09182
-3.45633
-3.41753
-3.43302
-2.94068
-2.9281
-2.99047
-2.73259
-2.83718
-3.06857
-3.0686
-2.61537
-2.49269
-2.4485
-2.2104
-2.18588
-2.19242
-2.05108
-2.04131
-2.03036
-1.89306
-1.89161
-1.95996
-2.01084
-1.99909
-2.02265
-2.04778
-2.03936
-2.05655
-2.07628
-2.076
-2.0934
-2.11467
-2.11766
-2.08809
-2.07971
-2.074
-2.05083
-2.04343
-2.03647
-2.01556
-2.00894
-2.01024
-2.01231
-28.9824
-29.2429
-29.7816
-30.6258
-31.7748
-33.0535
-33.6207
-30.8327
-21.0896
-17.9687
-16.3486
-11.3557
-10.4246
-10.0261
-6.88502
-6.46015
-6.03341
-3.02322
-2.76836
-3.64075
-4.09329
-3.13043
-3.23048
-3.39794
-2.67517
-2.76658
-2.94166
-2.53409
-2.71969
-3.08558
-3.14512
-2.48571
-2.40848
-2.43075
-2.09656
-2.11893
-2.17602
-1.97192
-1.99632
-2.01621
-1.81307
-1.8279
-1.92987
-2.00034
-1.96903
-2.00308
-2.03949
-2.01882
-2.04319
-2.07058
-2.0632
-2.08631
-2.11632
-2.12312
-2.07938
-2.07438
-2.07315
-2.04162
-2.03739
-2.03347
-2.00482
-1.99908
-2.00272
-2.00612
-29.1777
-29.4677
-30.0767
-31.0594
-32.4771
-34.2678
-35.6692
-33.2734
-19.8542
-17.4802
-16.867
-10.1154
-9.95263
-10.344
-5.96809
-6.15176
-6.28078
-1.96808
-2.04733
-3.4626
-4.23023
-2.71721
-3.04513
-3.44955
-2.34341
-2.60407
-2.9507
-2.28754
-2.59004
-3.13138
-3.28722
-2.3061
-2.31841
-2.44788
-1.95362
-2.05161
-2.18537
-1.87442
-1.95378
-2.02406
-1.71577
-1.75863
-1.90417
-2.00011
-1.9341
-1.9842
-2.03709
-1.99492
-2.03018
-2.06853
-2.0481
-2.07893
-2.12018
-2.13325
-2.06739
-2.06899
-2.0753
-2.03025
-2.03163
-2.03301
-1.99241
-1.98879
-1.99561
-2.00056
-29.339
-29.6547
-30.3258
-31.4359
-33.1163
-35.4643
-37.9635
-36.5731
-17.706
-16.8577
-17.8993
-8.35247
-9.45225
-11.065
-4.6923
-5.86161
-6.90593
-0.574407
-1.23999
-3.34909
-4.56099
-2.16109
-2.86117
-3.63112
-1.90659
-2.4411
-3.04772
-1.96725
-2.4451
-3.20918
-3.52277
-2.0475
-2.22199
-2.51887
-1.76517
-1.98413
-2.23329
-1.74711
-1.91397
-2.06477
-1.59204
-1.68341
-1.88402
-2.01415
-1.89061
-1.96598
-2.04319
-1.96538
-2.01753
-2.07178
-2.02925
-2.07103
-2.12643
-2.14993
-2.0501
-2.06348
-2.08191
-2.01539
-2.02619
-2.0363
-1.97737
-1.9781
-1.98904
-1.99572
-29.4676
-29.8047
-30.5286
-31.75
-33.674
-36.5975
-40.4726
-41.1287
-14.209
-16.1096
-19.7335
-5.81401
-8.9321
-12.3936
-2.86858
-5.59414
-8.09422
1.31879
-0.351213
-3.31274
-5.1667
-1.38125
-2.6796
-4.00449
-1.30808
-2.27942
-3.27557
-1.53622
-2.28343
-3.32
-3.89141
-1.66819
-2.11993
-2.67088
-1.50716
-1.91719
-2.33805
-1.57317
-1.87725
-2.15369
-1.42861
-1.6027
-1.87048
-2.04798
-1.83319
-1.94846
-2.0615
-1.92679
-2.00534
-2.0827
-2.00453
-2.06245
-2.13505
-2.17581
-2.02457
-2.05786
-2.09509
-1.99504
-2.0211
-2.04502
-1.95827
-1.9671
-1.98315
-1.99163
-29.5657
-29.9197
-30.6858
-31.9986
-34.1339
-37.6122
-43.1121
-47.5054
-8.75362
-15.266
-22.7718
-2.13859
-8.40886
-14.6152
-0.227518
-5.35486
-10.1031
3.94115
0.594815
-3.35968
-6.15924
-0.263298
-2.50392
-4.65608
-0.467176
-2.12287
-3.69383
-0.941908
-2.1074
-3.46045
-4.44875
-1.1096
-2.01495
-2.94183
-1.1452
-1.85235
-2.5251
-1.32859
-1.84418
-2.31211
-1.20648
-1.51857
-1.86422
-2.10911
-1.75415
-1.9319
-2.09719
-1.8743
-1.99378
-2.10456
-1.97095
-2.05318
-2.14568
-2.21467
-1.98666
-2.05221
-2.11779
-1.96636
-2.01643
-2.06149
-1.93305
-1.95606
-1.97808
-1.98833
-29.6356
-30.0018
-30.7991
-32.181
-34.4833
-38.4476
-45.7156
-56.4946
-0.503544
-14.3905
-27.5622
3.17872
-7.91197
-18.1195
3.60545
-5.15141
-13.2834
7.6142
1.54222
-3.48282
-7.69127
1.35086
-2.34162
-5.70405
0.728531
-1.97864
-4.38342
-0.111055
-1.92606
-3.61967
-5.27174
-0.291002
-1.91288
-3.38336
-0.631276
-1.79253
-2.82916
-0.979961
-1.81567
-2.56899
-0.899014
-1.43564
-1.86497
-2.20772
-1.64281
-1.91682
-2.15727
-1.8011
-1.98324
-2.14178
-1.92433
-2.04354
-2.15739
-2.27166
-1.9307
-2.04674
-2.15399
-1.92536
-2.01226
-2.08879
-1.89874
-1.94548
-1.97398
-1.98577
-29.6797
-30.0538
-30.8712
-32.2985
-34.7149
-39.0439
-47.9965
-69.1834
11.6694
-13.5942
-34.8346
10.8275
-7.48989
-23.4279
9.13904
-4.99502
-18.1041
12.7798
2.38665
-3.65182
-9.96866
3.67499
-2.2063
-7.30653
2.43221
-1.85889
-5.45205
1.05672
-1.7594
-3.77499
-6.46522
0.89666
-1.82414
-4.06421
0.100203
-1.74265
-3.29662
-0.481813
-1.79323
-2.96296
-0.469516
-1.36247
-1.87085
-2.35744
-1.4847
-1.90419
-2.25106
-1.69788
-1.97436
-2.20018
-1.85888
-2.03439
-2.1684
-2.35385
-1.84896
-2.0418
-2.209
-1.86661
-2.00872
-2.13104
-1.85124
-1.93626
-1.97088
-1.98386
-29.7006
-30.0785
-30.9056
-32.355
-34.8283
-39.3541
-49.4994
-87.0385
29.2608
-13.0551
-45.5405
21.729
-7.21849
-31.2242
17.0491
-4.90281
-25.1811
20.0337
2.95324
-3.79964
-13.2659
6.99225
-2.12031
-9.67105
4.84803
-1.78318
-7.04044
2.69631
-1.64411
-3.88648
-8.17013
2.59782
-1.76588
-5.07437
1.13658
-1.71096
-3.98856
0.225985
-1.77959
-3.54505
0.131153
-1.31371
-1.87774
-2.57676
-1.26096
-1.89606
-2.39114
-1.55256
-1.9686
-2.28775
-1.76723
-2.02783
-2.17602
-2.47106
-1.7316
-2.03841
-2.29012
-1.78317
-2.00637
-2.1939
-1.78531
-1.93015
-1.96905
-1.98273
)
;

boundaryField
{
    left
    {
        type            calculated;
        value           nonuniform List<scalar> 
32
(
-20.2282
-20.3059
-20.4536
-20.663
-20.9268
-21.2386
-21.5923
-21.9821
-22.4027
-22.8484
-23.3138
-23.7933
-24.2813
-24.7722
-25.2604
-25.7404
-26.2071
-26.6553
-27.0807
-27.4794
-27.848
-28.184
-28.4856
-28.7518
-28.9824
-29.1777
-29.339
-29.4676
-29.5657
-29.6356
-29.6797
-29.7006
)
;
    }
    right
    {
        type            calculated;
        value           nonuniform List<scalar> 
32
(
-2.16744
-2.16605
-2.16341
-2.15971
-2.15509
-2.1497
-2.14367
-2.13709
-2.13007
-2.12269
-2.11502
-2.10712
-2.09905
-2.09085
-2.08258
-2.07427
-2.06597
-2.05772
-2.04956
-2.04154
-2.03374
-2.02621
-2.01904
-2.01231
-2.00612
-2.00056
-1.99572
-1.99163
-1.98833
-1.98577
-1.98386
-1.98273
)
;
    }
    interface
    {
        type            calculated;
        value           nonuniform List<scalar> 
64
(
-29.7057
-30.0844
-30.9139
-32.3686
-34.8559
-39.4331
-49.9873
-97.4674
39.6235
-12.8768
-51.886
28.1242
-7.13193
-35.8409
21.6942
-4.87535
-29.3708
24.2681
3.14003
-3.8571
-15.2086
8.93933
-2.0931
-11.0732
6.26301
-1.75933
-7.98443
3.65331
-1.60516
-3.92503
-9.1706
3.59727
-1.74702
-5.67449
1.74341
-1.70094
-4.39931
0.640806
-1.77544
-3.89037
0.48127
-1.29773
-1.88077
-2.70649
-1.13005
-1.89348
-2.47457
-1.46771
-1.96676
-2.33999
-1.71385
-2.02558
-2.1786
-2.53986
-1.66266
-2.03729
-2.33827
-1.73433
-2.00561
-2.23132
-1.74702
-1.92817
-1.96852
-1.98242
)
;
    }
    bottom
    {
        type            calculated;
        value           nonuniform List<scalar> 
64
(
-20.2079
-20.1121
-19.9214
-19.6382
-19.266
-18.81
-18.2769
-17.675
-17.0143
-16.3059
-15.5615
-14.7934
-14.0133
-13.2323
-12.4605
-11.7064
-10.9772
-10.2786
-9.61485
-8.98861
-8.40145
-7.85388
-7.34551
-6.8753
-6.4417
-6.04283
-5.67659
-5.34077
-5.03318
-4.75166
-4.49415
-4.25876
-4.04373
-3.84749
-3.66859
-3.50575
-3.35779
-3.22362
-3.10223
-2.99269
-2.89408
-2.80556
-2.72628
-2.65546
-2.59234
-2.53617
-2.48627
-2.442
-2.40275
-2.36799
-2.33721
-2.30998
-2.28592
-2.2647
-2.24603
-2.2297
-2.21551
-2.20332
-2.19303
-2.18455
-2.17782
-2.1728
-2.16947
-2.16781
)
;
    }
    defaultFaces
    {
        type            empty;
    }
}


// ************************************************************************* //
