/*--------------------------------*- C++ -*----------------------------------*\
| =========                 |                                                 |
| \\      /  F ield         | OpenFOAM: The Open Source CFD Toolbox           |
|  \\    /   O peration     | Version:  5.x                                   |
|   \\  /    A nd           | Web:      www.OpenFOAM.org                      |
|    \\/     M anipulation  |                                                 |
\*---------------------------------------------------------------------------*/
FoamFile
{
    version     2.0;
    format      ascii;
    class       volScalarField;
    location    "6.2";
    object      gradTx;
}
// * * * * * * * * * * * * * * * * * * * * * * * * * * * * * * * * * * * * * //

dimensions      [0 -1 0 1 0 0 0];

internalField   nonuniform List<scalar> 
2048
(
0.0220384
0.0658691
0.108937
0.150664
0.190397
0.227408
0.260938
0.290263
0.31476
0.333984
0.347704
0.355928
0.358886
0.356996
0.350818
0.340998
0.328228
0.313201
0.296576
0.278957
0.26087
0.242757
0.224972
0.207783
0.191382
0.175898
0.1614
0.147916
0.135436
0.123921
0.113316
0.10355
0.0945498
0.0862433
0.0785637
0.0714528
0.0648619
0.0587515
0.0530901
0.0478531
0.0430206
0.0385763
0.0345056
0.0307939
0.0274258
0.0243839
0.0216492
0.0192004
0.0170147
0.0150679
0.0133353
0.0117915
0.0104115
0.00917092
0.00804656
0.00701697
0.00606281
0.00516718
0.00431575
0.00349667
0.00270043
0.00191958
0.00114833
0.000382236
0.0653555
0.195357
0.323154
0.447055
0.565117
0.675157
0.774882
0.862086
0.934878
0.991897
1.03245
1.05657
1.06497
1.05892
1.04012
1.01052
0.972198
0.927227
0.877581
0.825057
0.771223
0.717385
0.664584
0.613609
0.565021
0.519185
0.476305
0.43645
0.399586
0.365593
0.334298
0.305488
0.278942
0.25444
0.231785
0.210804
0.191352
0.173314
0.156598
0.141132
0.126859
0.113733
0.101711
0.090751
0.080808
0.0718314
0.0637643
0.0565438
0.0501021
0.0443676
0.0392663
0.0347232
0.0306637
0.0270154
0.0237092
0.0206815
0.0178747
0.0152389
0.0127316
0.010318
0.00797024
0.00566653
0.00339024
0.00112858
0.107315
0.320849
0.530947
0.734903
0.929517
1.11113
1.27582
1.4198
1.53981
1.63349
1.69968
1.73847
1.75111
1.7398
1.70745
1.65736
1.59303
1.51794
1.43535
1.34827
1.25926
1.17047
1.08359
0.999883
0.920238
0.845225
0.77515
0.710106
0.650013
0.594658
0.543736
0.496885
0.453724
0.413886
0.377042
0.342905
0.311243
0.281868
0.254634
0.22943
0.206165
0.184769
0.165174
0.147317
0.131125
0.116516
0.103397
0.0916648
0.0812074
0.0719067
0.0636406
0.0562857
0.0497187
0.0438201
0.0384758
0.0335807
0.0290402
0.0247724
0.020708
0.0167907
0.0129756
0.0092279
0.00552243
0.00183882
0.148201
0.443229
0.733902
1.01663
1.28698
1.53973
1.76918
1.96972
2.13649
2.26604
2.35669
2.40864
2.4238
2.40547
2.35786
2.28577
2.19417
2.08799
1.97185
1.84993
1.72581
1.60243
1.48208
1.36646
1.25672
1.15359
1.05745
0.968372
0.886213
0.810643
0.741203
0.677361
0.618565
0.564292
0.514074
0.467519
0.424309
0.384194
0.346982
0.312525
0.280712
0.251451
0.224661
0.200258
0.178147
0.158216
0.140337
0.124368
0.110152
0.0975251
0.0863182
0.0763594
0.0674775
0.0595056
0.0522852
0.0456697
0.0395281
0.0337475
0.0282332
0.0229088
0.017714
0.0126031
0.00754508
0.0025132
0.188169
0.563013
0.933008
1.29385
1.63993
1.96433
2.25925
2.51693
2.73062
2.89554
3.00944
3.07276
3.08827
3.06053
2.99532
2.89903
2.77825
2.63942
2.48855
2.33104
2.17148
2.01357
1.86016
1.71328
1.57431
1.44406
1.32294
1.21097
1.10792
1.01331
0.926496
0.846755
0.773341
0.705558
0.6428
0.584571
0.530476
0.480212
0.433549
0.390317
0.350386
0.313656
0.280038
0.249435
0.221733
0.196794
0.174454
0.154531
0.136825
0.121125
0.107214
0.0948732
0.0838829
0.0740289
0.065107
0.0569292
0.0493282
0.0421606
0.0353081
0.0286759
0.0221904
0.0157966
0.00946115
0.00315269
0.227258
0.680362
1.1287
1.5675
1.99
2.3874
2.74943
3.06567
3.32698
3.527
3.66291
3.7355
3.74869
3.70863
3.62287
3.49963
3.34722
3.17369
2.9865
2.79231
2.59671
2.40415
2.21793
2.04037
1.87296
1.71656
1.57152
1.43781
1.31505
1.2026
1.0996
1.00509
0.918095
0.837742
0.763281
0.694116
0.629787
0.56995
0.514349
0.462798
0.415163
0.371343
0.33125
0.294783
0.261815
0.232181
0.205682
0.182093
0.16117
0.142656
0.126287
0.111795
0.0989127
0.0873767
0.0769366
0.0673616
0.0584479
0.0500226
0.0419449
0.0341039
0.026415
0.0188166
0.0112758
0.00375901
0.265388
0.7951
1.32087
1.8378
2.33805
2.81067
3.24241
3.61945
3.92968
4.16477
4.32129
4.40068
4.40839
4.35255
4.24281
4.08941
3.90249
3.69182
3.46638
3.23415
3.00174
2.77429
2.55548
2.34779
2.15273
1.97113
1.80324
1.64894
1.50768
1.37862
1.26065
1.15252
1.05301
0.961033
0.875696
0.796315
0.722383
0.653526
0.589476
0.53004
0.47509
0.424537
0.378305
0.3363
0.298382
0.264362
0.234004
0.207039
0.183176
0.16211
0.143532
0.127125
0.112572
0.0995599
0.0877899
0.0769866
0.0669092
0.0573558
0.0481648
0.0392116
0.0304033
0.0216743
0.0129959
0.00433448
0.302368
0.906726
1.50892
2.10435
2.68423
3.2352
3.74028
4.18132
4.54236
4.81264
4.98818
5.07145
5.06997
4.99437
4.85677
4.66959
4.44498
4.19443
3.92857
3.65676
3.38667
3.12406
2.87289
2.63566
2.41377
2.20793
2.01828
1.84453
1.68599
1.54159
1.4099
1.28934
1.17839
1.07572
0.980317
0.891414
0.808477
0.731126
0.659088
0.592175
0.530272
0.473316
0.42126
0.374024
0.331464
0.293364
0.259447
0.229394
0.202865
0.17951
0.158971
0.140885
0.124886
0.110608
0.0976994
0.0858382
0.0747456
0.0641917
0.0539961
0.0440229
0.034174
0.024383
0.0146293
0.00488177
0.337902
1.01443
1.69174
2.36613
3.02806
3.66146
4.2447
4.75402
5.16839
5.47409
5.6667
5.75037
5.7354
5.63556
5.46581
5.24097
4.97521
4.68183
4.37318
4.06013
3.75146
3.45348
3.17027
2.90415
2.65631
2.42722
2.21687
2.02484
1.85026
1.69181
1.5477
1.41594
1.29462
1.1822
1.07749
0.979718
0.88834
0.802986
0.723391
0.649379
0.580855
0.517797
0.460205
0.40803
0.361128
0.319249
0.282068
0.249212
0.220289
0.194902
0.172649
0.15312
0.1359
0.120566
0.106711
0.0939611
0.0819998
0.0705691
0.0594724
0.0485655
0.0377486
0.0269576
0.0161847
0.00540377
0.371596
1.1171
1.86776
2.62149
3.3684
4.08936
4.75696
5.34006
5.811
6.15235
6.35962
6.43949
6.40606
6.27699
6.07049
5.80391
5.49342
5.15411
4.80013
4.44409
4.09597
3.76254
3.44773
3.15351
2.88067
2.62935
2.39938
2.19021
2.00084
1.82966
1.67448
1.53278
1.40219
1.28089
1.16762
1.06158
0.962278
0.869378
0.782628
0.701863
0.627017
0.558124
0.495257
0.438418
0.387463
0.342102
0.301949
0.266571
0.23552
0.208352
0.184624
0.163885
0.145667
0.129489
0.114879
0.101408
0.0887205
0.0765312
0.0646309
0.0528698
0.0411499
0.0294136
0.0176707
0.00590335
0.402969
1.21337
2.03494
2.8682
3.70347
4.51828
5.27807
5.94196
6.47344
6.85054
7.06936
7.14038
7.08277
6.919
6.67095
6.35848
5.99963
5.61116
5.20917
4.80833
4.41999
4.05119
3.70544
3.38407
3.08725
2.81475
2.56622
2.34103
2.1381
1.95558
1.79075
1.6404
1.50162
1.37231
1.25113
1.13737
1.03062
0.930595
0.837064
0.749867
0.668961
0.59446
0.526547
0.465302
0.410577
0.362028
0.319195
0.28157
0.248648
0.219941
0.19497
0.173245
0.154251
0.13744
0.122266
0.108239
0.0949611
0.0821248
0.0695106
0.0569671
0.0444014
0.0317662
0.0190956
0.00638315
0.431472
1.30165
2.19086
3.10344
4.03079
4.94706
5.80882
6.56233
7.15911
7.57173
7.79804
7.85412
7.76579
7.56145
7.26693
6.90449
6.49373
6.05281
5.59994
5.15242
4.72324
4.31944
3.94365
3.59624
3.27658
2.98395
2.71787
2.47774
2.26246
2.07001
1.89704
1.7394
1.59351
1.45697
1.32849
1.20748
1.0937
0.986943
0.88698
0.793645
0.706907
0.62698
0.554216
0.488806
0.430593
0.379151
0.333925
0.294322
0.259775
0.229758
0.203763
0.18127
0.161719
0.144487
0.12894
0.114516
0.100778
0.0873975
0.0741514
0.0608892
0.0475266
0.03403
0.0204663
0.00684536
0.456507
1.38017
2.33274
3.32384
4.34723
5.37394
6.34983
7.20403
7.87175
8.31899
8.54751
8.5813
8.45482
8.2037
7.85786
7.44156
6.97556
6.47884
5.97196
5.4758
5.00539
4.56729
4.16267
3.79057
3.44927
3.13754
2.85488
2.60078
2.37433
2.17343
1.99394
1.83046
1.67849
1.53545
1.40017
1.27229
1.15186
1.03873
0.932667
0.833471
0.74109
0.655864
0.578402
0.509056
0.447639
0.393601
0.346271
0.304952
0.269013
0.2379
0.211087
0.188034
0.168142
0.150703
0.134973
0.120304
0.106227
0.0923974
0.0785925
0.0646676
0.0505483
0.0362183
0.0217883
0.00729137
0.477455
1.44708
2.45752
3.52546
4.64889
5.79654
6.90159
7.87042
8.61557
9.09544
9.31927
9.32202
9.14896
8.84465
8.44287
7.96921
7.445
6.88911
6.32469
5.77776
5.26606
4.79484
4.36292
3.96769
3.60606
3.27619
2.97782
2.71064
2.47408
2.26627
2.08208
1.91428
1.75723
1.60832
1.46661
1.33217
1.2054
1.08626
0.974418
0.869631
0.771756
0.68129
0.599237
0.52618
0.461852
0.405523
0.356376
0.313595
0.276482
0.244469
0.217025
0.193605
0.173587
0.156163
0.140439
0.125671
0.111366
0.097171
0.0828714
0.0683328
0.0534884
0.0383424
0.0230648
0.00772153
0.493708
1.5005
2.56198
3.70393
4.93109
6.21168
7.46444
8.56552
9.39546
9.90414
10.1145
10.0758
9.84669
9.48278
9.02089
8.48685
7.90211
7.28366
6.65747
6.05742
5.50486
5.00228
4.54492
4.12838
3.74778
3.40065
3.08732
2.80777
2.56205
2.34895
2.16213
1.99165
1.83043
1.67613
1.52828
1.38745
1.25465
1.12982
1.01252
0.902424
0.799169
0.703429
0.616835
0.540298
0.473376
0.415067
0.364393
0.320394
0.282302
0.249568
0.221662
0.198052
0.178122
0.160942
0.145415
0.130681
0.116249
0.101763
0.0870228
0.0719141
0.0563686
0.0404114
0.0242957
0.00813467
0.504708
1.53863
2.64283
3.85444
5.18831
6.61525
8.03854
9.29435
10.2172
10.748
10.9337
10.8417
10.5458
10.1162
9.5907
8.99386
8.3472
7.66278
6.96953
6.31361
5.72141
5.18996
4.70933
4.27354
3.87539
3.51167
3.18405
2.89266
2.63846
2.4218
2.23483
2.06347
1.89879
1.73947
1.5856
1.43842
1.29985
1.1697
1.04726
0.932166
0.823607
0.72244
0.631286
0.551525
0.482359
0.422387
0.370479
0.325497
0.2866
0.253301
0.225077
0.201432
0.181806
0.16512
0.149984
0.1354
0.120928
0.106213
0.0910776
0.0754399
0.0592101
0.0424315
0.0254771
0.0085277
0.509979
1.55988
2.69693
3.97195
5.41415
7.00196
8.62374
10.0633
11.0878
11.6297
11.7772
11.6182
11.2432
10.7426
10.151
9.48946
8.78099
8.02725
7.25986
6.54483
5.91536
5.35844
4.85684
4.40423
3.98999
3.61004
3.26871
2.96581
2.70342
2.48506
2.30097
2.1307
1.96302
1.79886
1.63896
1.48531
1.34126
1.20617
1.0789
0.959197
0.845379
0.738454
0.642643
0.559969
0.488961
0.427642
0.374801
0.329061
0.289498
0.255773
0.227351
0.203793
0.184689
0.168779
0.154231
0.139887
0.125451
0.11056
0.095061
0.0789378
0.0620358
0.0444058
0.0265997
0.00889512
0.509164
1.56293
2.72138
4.05126
5.60132
7.36507
9.21938
10.8807
12.0157
12.5507
12.6445
12.4034
11.935
11.3596
10.7007
9.97268
9.20477
8.37847
7.52715
6.74902
6.08649
5.50862
4.98823
4.52161
4.09279
3.69648
3.34209
3.02775
2.75683
2.53878
2.36149
2.19449
2.02374
1.85481
1.68876
1.52825
1.37909
1.2395
1.10765
0.983886
0.864839
0.751572
0.650907
0.565739
0.493359
0.430991
0.377529
0.331246
0.291113
0.257086
0.22856
0.20517
0.186812
0.172008
0.158247
0.144196
0.129862
0.114839
0.0989903
0.0824357
0.0648712
0.0463328
0.027648
0.00922845
0.502059
1.54689
2.71376
4.08731
5.74164
7.69593
9.82384
11.7576
13.0116
13.5113
13.5343
13.1954
12.6158
11.9648
11.2388
10.442
9.62057
8.71887
7.76952
6.92338
6.23483
5.64185
5.10415
4.62703
4.18523
3.77156
3.40501
3.07913
2.79835
2.58278
2.41751
2.25617
2.08148
1.90781
1.73538
1.56727
1.41354
1.26998
1.1337
1.00664
0.882405
0.761838
0.656008
0.568943
0.495754
0.432582
0.378839
0.332223
0.291551
0.257347
0.228785
0.205575
0.188196
0.174906
0.162136
0.148367
0.134201
0.11908
0.102872
0.0859626
0.0677481
0.0482061
0.0285983
0.00951581
0.48863
1.51134
2.67229
4.07537
5.82621
7.98363
10.434
12.7085
14.0886
14.5088
14.4451
13.9926
13.2787
12.5559
11.7651
10.8948
10.0315
9.05227
7.98422
7.06407
6.36087
5.76011
5.20499
4.722
4.26898
3.83557
3.45846
3.12082
2.82728
2.61655
2.47043
2.31737
2.13653
1.95828
1.77926
1.6022
1.44481
1.29792
1.15708
1.02794
0.898597
0.76922
0.657783
0.569713
0.496388
0.432544
0.378911
0.332174
0.290899
0.256662
0.228113
0.204998
0.18884
0.17759
0.166016
0.152422
0.138504
0.123318
0.106696
0.0895508
0.0707081
0.0500115
0.0294169
0.00974154
0.469029
1.45641
2.59601
4.01139
5.84558
8.21448
11.0439
13.7532
15.2636
15.5357
15.3749
14.7944
13.914
13.1314
12.2805
11.3268
10.4419
9.38453
8.16718
7.16581
6.46592
5.8663
5.29052
4.80828
4.34611
3.88827
3.50361
3.15402
2.84242
2.63908
2.5221
2.38009
2.18879
2.00667
1.82093
1.63264
1.47313
1.32372
1.17768
1.04834
0.914089
0.773568
0.655948
0.568221
0.49556
0.430964
0.377936
0.3313
0.289209
0.255146
0.226646
0.203394
0.18871
0.180207
0.170027
0.156349
0.142804
0.127589
0.110428
0.0932387
0.0738089
0.0517246
0.0300585
0.00988602
0.443589
1.38279
2.48492
3.89233
5.79015
8.37158
11.6439
14.9179
16.5585
16.5777
16.322
15.6026
14.508
13.6912
12.7875
11.7304
10.8583
9.72438
8.31227
7.22141
6.55252
5.96456
5.35938
4.88803
4.41928
3.92856
3.54194
3.18053
2.84193
2.64869
2.57497
2.44689
2.2375
2.05344
1.86113
1.65777
1.49882
1.34793
1.19506
1.06852
0.929772
0.774559
0.650061
0.56471
0.493653
0.427853
0.376119
0.329836
0.28648
0.252928
0.224513
0.200676
0.187726
0.182941
0.174342
0.160087
0.147143
0.131944
0.113997
0.0970751
0.0771314
0.0533058
0.0304643
0.00992608
0.412816
1.29176
2.34006
3.7165
5.65068
8.43447
12.2173
16.2382
18.0018
17.6088
17.2863
16.4229
15.0408
14.2375
13.2917
12.093
11.2895
10.0845
8.4104
7.22123
6.6251
6.0607
5.40831
4.96396
4.49202
3.95392
3.57541
3.20299
2.8231
2.64277
2.6324
2.52106
2.28088
2.09922
1.90098
1.67619
1.52237
1.37134
1.20837
1.08937
0.946853
0.771625
0.639482
0.559546
0.491163
0.4231
0.373691
0.328066
0.282629
0.250156
0.221892
0.1967
0.185749
0.186038
0.179177
0.163497
0.15157
0.13646
0.117276
0.101126
0.0807906
0.0546926
0.030561
0.0098358
0.377361
1.1851
2.16357
3.4839
5.41906
8.37911
12.7382
17.7618
19.6313
18.5866
18.271
17.2674
15.4835
14.7763
13.8032
12.394
11.7483
10.4832
8.44817
7.15249
6.69083
6.16282
5.43106
5.03976
4.56924
3.95973
3.60672
3.22534
2.78201
2.61746
2.69901
2.60689
2.31561
2.14492
1.94217
1.6856
1.54457
1.39511
1.216
1.11203
0.966971
0.763838
0.62333
0.553273
0.488745
0.416399
0.37093
0.326352
0.277445
0.24702
0.219027
0.191251
0.182555
0.189828
0.184815
0.166327
0.156167
0.141251
0.120057
0.105483
0.0849479
0.0557894
0.0302606
0.00958819
0.337987
1.06502
1.95863
3.19649
5.08917
8.17828
13.166
19.5522
21.4976
19.4447
19.2854
18.1574
15.7929
15.3198
14.3383
12.6011
12.2525
10.9459
8.40611
6.99858
6.76071
6.28201
5.41681
5.12062
4.65777
3.93816
3.63966
3.25326
2.71325
2.56724
2.78106
2.71002
2.33606
2.192
1.98724
1.68238
1.56669
1.42098
1.21536
1.13804
0.992352
0.749772
0.600435
0.546689
0.48726
0.407148
0.368194
0.32517
0.270531
0.243764
0.21626
0.184025
0.177809
0.194752
0.191626
0.168154
0.161061
0.146499
0.122013
0.110279
0.0898276
0.0564512
0.0294626
0.0091577
0.295528
0.934056
1.72934
2.85837
4.65802
7.80267
13.4399
21.6937
23.6689
20.0821
20.349
19.128
15.9059
15.8886
14.9232
12.6649
12.8273
11.5075
8.25643
6.73831
6.85082
6.43336
5.34817
5.21406
4.76727
3.87683
3.67965
3.29482
2.60941
2.48443
2.88707
2.83793
2.3334
2.2429
2.04003
1.66102
1.59074
1.4515
1.20235
1.16952
1.02599
0.727305
0.569299
0.540943
0.487838
0.394324
0.36597
0.325164
0.261223
0.240723
0.214069
0.1746
0.171027
0.201404
0.200101
0.168321
0.166458
0.15248
0.122649
0.115708
0.0957366
0.0564628
0.0280585
0.00852351
0.250848
0.794942
1.48054
2.47578
4.1268
7.22314
13.4704
24.2967
26.237
20.351
21.4977
20.2332
15.7306
16.5164
15.5968
12.512
13.5079
12.2154
7.96007
6.34526
6.98385
6.63714
5.19844
5.33107
4.9112
3.75689
3.73449
3.36114
2.46056
2.3586
3.02839
3.00052
2.29426
2.3015
2.10608
1.6133
1.61985
1.49041
1.17079
1.20941
1.07188
0.693384
0.528062
0.537638
0.491963
0.376299
0.364943
0.327203
0.248479
0.23836
0.213105
0.162415
0.161538
0.210567
0.210895
0.165837
0.172687
0.159603
0.121231
0.122051
0.103087
0.0555094
0.0259399
0.00767351
0.204799
0.650457
1.21756
2.05692
3.50193
6.41421
13.1294
27.5042
29.3255
20.0396
22.791
21.5518
15.1354
17.2547
16.4159
12.0357
14.3439
13.1318
7.46319
5.78721
7.19072
6.92029
4.92823
5.48762
5.10821
3.55069
3.8153
3.46719
2.25365
2.17587
3.21993
3.21084
2.19913
2.37392
2.19329
1.52729
1.65867
1.543
1.11164
1.26179
1.13524
0.643712
0.474487
0.538944
0.501566
0.35063
0.366094
0.332467
0.230744
0.237326
0.214236
0.146737
0.148426
0.22327
0.224884
0.159268
0.180254
0.168461
0.116706
0.129714
0.112424
0.0531394
0.0230126
0.00660833
0.158186
0.503302
0.945923
1.61162
2.79591
5.35952
12.237
31.4996
33.1
18.8518
24.3229
23.1955
13.9352
18.1793
17.4611
11.0859
15.4035
14.3377
6.69285
5.0259
7.51231
7.31834
4.4812
5.70674
5.38371
3.21879
3.93788
3.63258
1.97182
1.9182
3.48096
3.48609
2.02046
2.46945
2.31258
1.3861
1.71406
1.61663
1.01209
1.33234
1.22282
0.572385
0.405977
0.547723
0.519144
0.313782
0.370823
0.342536
0.205777
0.238532
0.2186
0.126631
0.130478
0.240833
0.243227
0.146585
0.189912
0.179887
0.107591
0.139282
0.12445
0.0487169
0.0192154
0.0053449
0.111738
0.355987
0.671066
1.15075
2.0275
4.05931
10.5463
36.5144
37.781
16.3828
26.2338
25.3172
11.8745
19.399
18.843
9.45465
16.7807
15.9356
5.55205
4.01708
8.00104
7.87768
3.77905
6.02096
5.77169
2.70642
4.12436
3.88238
1.59367
1.56251
3.83588
3.84874
1.72015
2.60176
2.47868
1.16627
1.79578
1.72132
0.85437
1.42887
1.34314
0.471454
0.31963
0.567633
0.547905
0.260804
0.381114
0.359499
0.170439
0.243248
0.227641
0.100928
0.106114
0.264928
0.267462
0.124994
0.202755
0.195025
0.091844
0.151575
0.140061
0.0413643
0.0145476
0.00391836
0.0660896
0.210738
0.398038
0.685502
1.22128
2.54054
7.72513
42.837
43.6585
12.0898
28.7268
28.1205
8.60767
21.0649
20.7105
6.86143
18.6029
18.0533
3.91411
2.71119
8.72232
8.65832
2.71563
6.47546
6.31679
1.93931
4.40529
4.24779
1.09249
1.07991
4.31503
4.32792
1.24689
2.7904
2.71104
0.836003
1.91745
1.87043
0.614436
1.56198
1.50678
0.330434
0.21234
0.603224
0.591938
0.184956
0.399729
0.386073
0.120455
0.253225
0.243153
0.0681946
0.0733156
0.297633
0.299599
0.0907316
0.220321
0.215402
0.0667136
0.167734
0.160373
0.0298941
0.00910354
0.00238127
0.0217678
0.0694412
0.131281
0.226563
0.406025
0.869667
3.33548
50.8216
51.1101
5.25943
32.0857
31.87
3.67634
23.3822
23.2592
2.93492
21.0402
20.8467
1.61647
1.05457
9.75551
9.73717
1.1502
7.1316
7.07656
0.81886
4.82226
4.7667
0.435559
0.434817
4.95539
4.96107
0.532887
3.06253
3.03476
0.353048
2.09759
2.08138
0.260426
1.74596
1.72665
0.135756
0.0809673
0.659995
0.656414
0.0772747
0.430443
0.425729
0.0501336
0.270841
0.267306
0.0267109
0.0295582
0.341477
0.342245
0.0388301
0.244721
0.243014
0.0285636
0.189312
0.186751
0.0127306
0.00311792
0.000798748
)
;

boundaryField
{
    left
    {
        type            calculated;
        value           uniform 0;
    }
    right
    {
        type            calculated;
        value           uniform 0;
    }
    interface
    {
        type            calculated;
        value           nonuniform List<scalar> 
64
(
0.0217678
0.0694412
0.131281
0.226563
0.406025
0.869667
3.33548
50.8216
51.1101
5.25943
32.0857
31.87
3.67634
23.3822
23.2592
2.93492
21.0402
20.8467
1.61647
1.05457
9.75551
9.73717
1.1502
7.1316
7.07656
0.81886
4.82226
4.7667
0.435559
0.434817
4.95539
4.96107
0.532887
3.06253
3.03476
0.353048
2.09759
2.08138
0.260426
1.74596
1.72665
0.135756
0.0809673
0.659995
0.656414
0.0772747
0.430443
0.425729
0.0501336
0.270841
0.267306
0.0267109
0.0295582
0.341477
0.342245
0.0388301
0.244721
0.243014
0.0285636
0.189312
0.186751
0.0127306
0.00311792
0.000798748
)
;
    }
    bottom
    {
        type            calculated;
        value           nonuniform List<scalar> 
64
(
0.0220384
0.0658691
0.108937
0.150664
0.190397
0.227408
0.260938
0.290263
0.31476
0.333984
0.347704
0.355928
0.358886
0.356996
0.350818
0.340998
0.328228
0.313201
0.296576
0.278957
0.26087
0.242757
0.224972
0.207783
0.191382
0.175898
0.1614
0.147916
0.135436
0.123921
0.113316
0.10355
0.0945498
0.0862433
0.0785637
0.0714528
0.0648619
0.0587515
0.0530901
0.0478531
0.0430206
0.0385763
0.0345056
0.0307939
0.0274258
0.0243839
0.0216492
0.0192004
0.0170147
0.0150679
0.0133353
0.0117915
0.0104115
0.00917092
0.00804656
0.00701697
0.00606281
0.00516718
0.00431575
0.00349667
0.00270043
0.00191958
0.00114833
0.000382236
)
;
    }
    defaultFaces
    {
        type            empty;
    }
}


// ************************************************************************* //
