/*--------------------------------*- C++ -*----------------------------------*\
| =========                 |                                                 |
| \\      /  F ield         | OpenFOAM: The Open Source CFD Toolbox           |
|  \\    /   O peration     | Version:  5.x                                   |
|   \\  /    A nd           | Web:      www.OpenFOAM.org                      |
|    \\/     M anipulation  |                                                 |
\*---------------------------------------------------------------------------*/
FoamFile
{
    version     2.0;
    format      ascii;
    class       volScalarField;
    location    "6.2";
    object      T;
}
// * * * * * * * * * * * * * * * * * * * * * * * * * * * * * * * * * * * * * //

dimensions      [0 0 0 1 0 0 0];

internalField   nonuniform List<scalar> 
2048
(
9.85482
9.85551
9.85688
9.85891
9.86159
9.86486
9.86869
9.87302
9.87776
9.88285
9.8882
9.89372
9.89932
9.90494
9.91048
9.9159
9.92114
9.92616
9.93092
9.93542
9.93964
9.94358
9.94723
9.95061
9.95372
9.95659
9.95922
9.96163
9.96384
9.96586
9.96771
9.9694
9.97095
9.97236
9.97364
9.97481
9.97588
9.97684
9.97771
9.9785
9.97921
9.97984
9.98041
9.98092
9.98138
9.98178
9.98214
9.98246
9.98274
9.98299
9.98321
9.9834
9.98358
9.98373
9.98386
9.98398
9.98408
9.98417
9.98424
9.98431
9.98435
9.98439
9.98441
9.98443
9.57024
9.57228
9.57635
9.58238
9.59032
9.60004
9.61142
9.62426
9.63836
9.65347
9.66935
9.68574
9.70237
9.71902
9.73546
9.75152
9.76704
9.7819
9.79602
9.80933
9.8218
9.83343
9.84422
9.8542
9.86339
9.87185
9.87962
9.88674
9.89326
9.89922
9.90468
9.90967
9.91423
9.91839
9.92218
9.92563
9.92877
9.93161
9.93418
9.9365
9.93859
9.94047
9.94215
9.94365
9.94498
9.94617
9.94723
9.94817
9.949
9.94973
9.95038
9.95096
9.95147
9.95192
9.95231
9.95266
9.95296
9.95322
9.95343
9.95361
9.95376
9.95386
9.95393
9.95397
9.29656
9.29992
9.30659
9.31651
9.32956
9.34556
9.36428
9.38543
9.40865
9.43355
9.4597
9.48666
9.51402
9.54138
9.56839
9.59474
9.62018
9.64452
9.66762
9.68938
9.70975
9.72873
9.74633
9.76259
9.77758
9.79135
9.80399
9.81557
9.82618
9.83589
9.84476
9.85288
9.86029
9.86706
9.87323
9.87884
9.88394
9.88857
9.89275
9.89652
9.89992
9.90297
9.90569
9.90813
9.9103
9.91223
9.91394
9.91546
9.9168
9.91799
9.91905
9.91998
9.92081
9.92154
9.92218
9.92274
9.92323
9.92365
9.924
9.92429
9.92453
9.9247
9.92481
9.92487
9.03254
9.03717
9.04639
9.0601
9.07816
9.10032
9.12627
9.15561
9.18783
9.22237
9.25864
9.29602
9.33391
9.37176
9.40908
9.44545
9.48051
9.51401
9.54576
9.57563
9.60357
9.62957
9.65365
9.67588
9.69635
9.71515
9.7324
9.7482
9.76266
9.77589
9.78799
9.79906
9.80916
9.81839
9.8268
9.83445
9.84141
9.84771
9.85341
9.85855
9.86318
9.86733
9.87104
9.87435
9.87729
9.87991
9.88224
9.8843
9.88612
9.88774
9.88917
9.89044
9.89156
9.89255
9.89342
9.89418
9.89485
9.89542
9.8959
9.8963
9.89662
9.89685
9.89701
9.89709
8.77713
8.78301
8.79472
8.81216
8.83515
8.86341
8.89654
8.93401
8.97519
9.01935
9.06568
9.11339
9.1617
9.2099
9.25735
9.3035
9.34794
9.39032
9.43042
9.46809
9.50327
9.53595
9.56619
9.59408
9.61973
9.64328
9.66486
9.68462
9.7027
9.71924
9.73437
9.74819
9.76083
9.77236
9.78288
9.79245
9.80114
9.80903
9.81615
9.82257
9.82835
9.83352
9.83815
9.84227
9.84594
9.8492
9.85209
9.85466
9.85692
9.85893
9.86071
9.86228
9.86367
9.8649
9.86599
9.86694
9.86777
9.86848
9.86908
9.86958
9.86998
9.87028
9.87047
9.87057
8.52949
8.53659
8.55075
8.57186
8.59973
8.63405
8.67434
8.71997
8.77014
8.82394
8.88036
8.9384
8.9971
9.05555
9.11299
9.16876
9.22235
9.27336
9.32153
9.36669
9.40879
9.44784
9.48392
9.51715
9.54768
9.57568
9.60132
9.62479
9.64626
9.66589
9.68384
9.70025
9.71525
9.72894
9.74143
9.75279
9.76312
9.77247
9.78093
9.78855
9.79539
9.80152
9.80699
9.81187
9.81621
9.82005
9.82346
9.82648
9.82915
9.83152
9.83361
9.83546
9.8371
9.83855
9.83983
9.84096
9.84194
9.84279
9.8435
9.8441
9.84457
9.84492
9.84516
9.84527
8.28892
8.29722
8.31377
8.33849
8.3712
8.41156
8.45903
8.51288
8.57214
8.63569
8.70229
8.77073
8.83981
8.90849
8.97583
9.04108
9.10362
9.16303
9.21899
9.27135
9.32006
9.36516
9.40676
9.44502
9.48012
9.51229
9.54172
9.56864
9.59325
9.61576
9.63633
9.65515
9.67235
9.68806
9.70238
9.71542
9.72727
9.738
9.74769
9.75642
9.76425
9.77126
9.77752
9.78309
9.78803
9.79241
9.79629
9.79972
9.80276
9.80545
9.80783
9.80993
9.8118
9.81345
9.81491
9.81619
9.81732
9.81829
9.81911
9.81979
9.82033
9.82074
9.82101
9.82115
8.05487
8.06432
8.0832
8.11147
8.14896
8.19535
8.25006
8.31224
8.38073
8.45419
8.53113
8.61007
8.68961
8.7685
8.84568
8.92028
8.99161
9.05918
9.12268
9.18195
9.23696
9.28778
9.33458
9.37756
9.41695
9.45299
9.48595
9.51606
9.54359
9.56875
9.59176
9.61281
9.63205
9.64963
9.66567
9.68027
9.69353
9.70553
9.71637
9.72613
9.73488
9.7427
9.74967
9.75587
9.76136
9.76622
9.77053
9.77433
9.7777
9.78067
9.78331
9.78564
9.78771
9.78954
9.79116
9.79259
9.79385
9.79493
9.79585
9.79662
9.79723
9.79769
9.79799
9.79814
7.82687
7.83743
7.85857
7.8903
7.93251
7.98492
8.04693
8.11757
8.1955
8.27908
8.36656
8.45617
8.54626
8.6354
8.72237
8.80621
8.88615
8.96168
9.03246
9.09834
9.15934
9.21558
9.26726
9.31465
9.35802
9.39766
9.43387
9.46693
9.49714
9.52475
9.55001
9.57312
9.59426
9.61358
9.6312
9.64725
9.66182
9.67501
9.68691
9.69762
9.70721
9.71577
9.72339
9.73015
9.73614
9.74143
9.74611
9.75025
9.7539
9.75713
9.75999
9.76253
9.76478
9.76677
9.76855
9.77011
9.77148
9.77267
9.77369
9.77453
9.7752
9.77571
9.77605
9.77622
7.60458
7.61619
7.63948
7.67455
7.72141
7.77982
7.8492
7.92847
8.01608
8.11007
8.20834
8.3088
8.40957
8.50899
8.60573
8.6987
8.7871
8.87037
8.94816
9.02037
9.08704
9.14837
9.20462
9.25611
9.30317
9.34613
9.38534
9.42111
9.45378
9.48364
9.51096
9.53597
9.55886
9.57978
9.59888
9.61627
9.63206
9.64634
9.65923
9.6708
9.68116
9.6904
9.6986
9.70587
9.7123
9.71798
9.72299
9.72742
9.73132
9.73478
9.73783
9.74055
9.74295
9.7451
9.747
9.74869
9.75017
9.75146
9.75256
9.75348
9.75421
9.75477
9.75513
9.75532
7.38771
7.4003
7.42562
7.46389
7.51526
7.57963
7.65645
7.74456
7.84214
7.94686
8.05622
8.16778
8.27935
8.38911
8.49557
8.59758
8.69428
8.78507
8.86963
8.94786
9.01989
9.08598
9.14649
9.20178
9.25224
9.29825
9.3402
9.37845
9.41336
9.44526
9.47447
9.50122
9.52573
9.54815
9.56861
9.58725
9.60416
9.61945
9.63324
9.64561
9.65667
9.66652
9.67525
9.68297
9.68979
9.6958
9.7011
9.70578
9.7099
9.71355
9.71677
9.71964
9.72219
9.72446
9.72648
9.72828
9.72987
9.73125
9.73243
9.73342
9.73421
9.73481
9.73521
9.73541
7.17607
7.18955
7.21674
7.25801
7.31372
7.38398
7.46832
7.5655
7.67339
7.78922
7.91001
8.03291
8.15545
8.27559
8.39175
8.50268
8.60751
8.70561
8.79666
8.88061
8.95767
9.02821
9.09266
9.15145
9.20504
9.25385
9.29829
9.33878
9.37572
9.40948
9.44041
9.46876
9.49476
9.51856
9.54029
9.56008
9.57803
9.59425
9.60887
9.62197
9.63367
9.64406
9.65326
9.66138
9.66854
9.67484
9.68039
9.68527
9.68958
9.69339
9.69676
9.69976
9.70243
9.70481
9.70694
9.70884
9.71052
9.71199
9.71325
9.71431
9.71516
9.71579
9.71622
9.71643
6.96951
6.98378
7.01264
7.05667
7.11651
7.19253
7.28445
7.39096
7.50957
7.63695
7.76954
7.90406
8.03771
8.16827
8.29407
8.41383
8.52662
8.63182
8.72908
8.81844
8.9002
8.97486
9.04293
9.10494
9.16139
9.21273
9.25943
9.30195
9.34071
9.37614
9.40863
9.43846
9.46583
9.49091
9.51381
9.53466
9.55357
9.57066
9.58603
9.5998
9.61208
9.62296
9.63257
9.64104
9.64848
9.65503
9.66078
9.66585
9.67031
9.67425
9.67775
9.68085
9.68362
9.68611
9.68833
9.69032
9.69209
9.69364
9.69498
9.6961
9.697
9.69768
9.69813
9.69836
6.76796
6.78288
6.81318
6.85967
6.92335
7.00495
7.10449
7.22063
7.35044
7.48986
7.63467
7.78109
7.92599
8.06699
8.20238
8.33083
8.45142
8.56349
8.6667
8.76114
8.84726
8.9257
8.9971
9.06204
9.12109
9.17473
9.22347
9.26779
9.30818
9.3451
9.379
9.41017
9.43882
9.46508
9.48908
9.51091
9.53071
9.54858
9.56465
9.57903
9.59183
9.60315
9.61312
9.62188
9.62956
9.63631
9.64224
9.64745
9.65204
9.65609
9.65967
9.66287
9.66573
9.66829
9.67061
9.67268
9.67453
9.67616
9.67757
9.67875
9.6797
9.68042
9.6809
9.68114
6.57136
6.58679
6.61825
6.66685
6.73399
6.82094
6.92811
7.05421
7.19578
7.34782
7.50529
7.66389
7.82016
7.9716
8.11649
8.2535
8.38171
8.50044
8.60932
8.70849
8.79862
8.88052
8.95494
9.02255
9.08395
9.13966
9.19022
9.23614
9.27796
9.31621
9.35137
9.38377
9.41361
9.44097
9.46598
9.48873
9.50934
9.52794
9.54465
9.55958
9.57285
9.58456
9.59483
9.60383
9.61172
9.61863
9.62469
9.63001
9.6347
9.63883
9.6425
9.64576
9.64869
9.65133
9.65372
9.65587
9.6578
9.65951
9.66098
9.66222
9.66323
9.66399
9.66449
9.66475
6.37971
6.39548
6.42779
6.47807
6.54824
6.6402
6.75497
6.89141
7.04542
7.2107
7.38129
7.55237
7.7201
7.88193
8.03623
8.18164
8.31728
8.44249
8.55675
8.66029
8.75405
8.83908
8.91623
8.98625
9.04978
9.10735
9.15952
9.20686
9.24992
9.28931
9.3256
9.35915
9.39008
9.41848
9.44444
9.46803
9.48939
9.50865
9.52594
9.54138
9.55507
9.56712
9.57765
9.58685
9.59488
9.60192
9.60808
9.6135
9.61826
9.62245
9.62617
9.62949
9.63247
9.63517
9.63763
9.63985
9.64186
9.64363
9.64518
9.64648
9.64753
9.64833
9.64886
9.64913
6.19303
6.20897
6.24178
6.29325
6.3659
6.46244
6.58471
6.73193
6.89919
7.07842
7.26262
7.44646
7.62568
7.79781
7.96139
8.11503
8.25794
8.38944
8.50879
8.61631
8.71331
8.80116
8.88077
8.95294
9.0184
9.07763
9.13121
9.17978
9.22389
9.26426
9.30155
9.33616
9.36814
9.39751
9.42435
9.44872
9.47077
9.49064
9.50846
9.52435
9.53843
9.55077
9.56151
9.57085
9.57901
9.58613
9.59237
9.59785
9.60266
9.60689
9.61065
9.614
9.61702
9.61977
9.62229
9.62459
9.62666
9.62851
9.63012
9.63148
9.63258
9.63342
9.63397
9.63425
6.01136
6.02728
6.06021
6.11232
6.18681
6.28736
6.41697
6.57547
6.75699
6.95096
7.1492
7.3461
7.53681
7.71907
7.89179
8.05346
8.20344
8.34111
8.46527
8.57634
8.67618
8.76654
8.84832
8.92242
8.98962
9.05032
9.10514
9.15476
9.19975
9.24091
9.27909
9.31471
9.34767
9.37795
9.40563
9.43072
9.45339
9.47382
9.49212
9.50843
9.52287
9.53546
9.54635
9.5558
9.56403
9.57122
9.5775
9.58302
9.58785
9.59211
9.59589
9.59926
9.6023
9.60509
9.60767
9.61004
9.61218
9.6141
9.61577
9.61719
9.61835
9.61922
9.61979
9.62008
5.83477
5.85046
5.88311
5.93526
6.01084
6.11469
6.25133
6.42168
6.61876
6.82829
7.04099
7.25124
7.45334
7.64549
7.82724
7.9967
8.15356
8.29734
8.42602
8.54014
8.64238
8.73498
8.81868
8.89448
8.96328
9.02527
9.08114
9.13168
9.17736
9.21913
9.25807
9.29467
9.32858
9.35972
9.3882
9.41395
9.43718
9.45813
9.47686
9.49355
9.50832
9.52113
9.53213
9.54163
9.54991
9.55712
9.56343
9.56896
9.57381
9.57807
9.58185
9.58522
9.58827
9.5911
9.59374
9.59617
9.59838
9.60036
9.6021
9.60358
9.60478
9.60569
9.60629
9.60659
5.6633
5.67857
5.71053
5.76208
5.83788
5.94415
6.08737
6.27021
6.48451
6.71048
6.93791
7.16189
7.37518
7.57685
7.76755
7.94451
8.10801
8.25799
8.3909
8.5075
8.61165
8.70627
8.79165
8.86893
8.93921
9.00234
9.05908
9.11041
9.1566
9.19877
9.23837
9.27597
9.31079
9.34273
9.37198
9.39833
9.42205
9.44349
9.46261
9.47964
9.49474
9.50773
9.51877
9.52828
9.53658
9.54379
9.55009
9.55563
9.56047
9.56472
9.5685
9.57185
9.5749
9.57775
9.58045
9.58294
9.58521
9.58727
9.58907
9.5906
9.59187
9.59281
9.59343
9.59373
5.49702
5.51168
5.54253
5.5928
5.66789
5.77548
5.92459
6.1206
6.35438
6.59759
6.83987
7.07805
7.30219
7.51286
7.71255
7.89663
8.06651
8.22294
8.35978
8.47816
8.58371
8.68022
8.76703
8.84555
8.91729
8.98137
9.0388
9.09086
9.13736
9.17968
9.21983
9.2585
9.29421
9.3269
9.35692
9.3838
9.40794
9.42984
9.4493
9.46664
9.48207
9.4952
9.50624
9.5157
9.524
9.53119
9.53746
9.543
9.54782
9.55204
9.55579
9.55912
9.56215
9.56502
9.56778
9.57033
9.57266
9.57479
9.57665
9.57824
9.57956
9.58055
9.58118
9.58149
5.33598
5.34985
5.3792
5.4275
5.50083
5.60844
5.76244
5.97231
6.22863
6.48977
6.74668
6.99983
7.23426
7.4532
7.66211
7.85281
8.02868
8.19213
8.33257
8.45189
8.55824
8.65666
8.74463
8.82414
8.89738
8.96224
9.02015
9.07292
9.11954
9.16174
9.20231
9.2422
9.27878
9.31212
9.34295
9.37029
9.39475
9.41712
9.43688
9.45447
9.47027
9.48352
9.49447
9.50384
9.51212
9.51927
9.52549
9.53102
9.5358
9.53997
9.5437
9.54699
9.54997
9.55285
9.55569
9.5583
9.56069
9.5629
9.56482
9.56646
9.56785
9.56887
9.56952
9.56983
5.18024
5.19314
5.2206
5.26626
5.33675
5.44285
5.60032
5.82464
6.10777
6.3872
6.65804
6.92739
7.17126
7.39742
7.61618
7.81278
7.99408
8.16558
8.30922
8.42841
8.53489
8.63544
8.72428
8.80445
8.87941
8.94483
9.00297
9.05656
9.10306
9.14478
9.18565
9.22704
9.26443
9.29832
9.33003
9.35773
9.38241
9.4053
9.42527
9.44306
9.45931
9.47265
9.48342
9.49263
9.50091
9.50798
9.51413
9.51966
9.52438
9.52849
9.5322
9.53543
9.53835
9.54123
9.54416
9.54683
9.54927
9.55157
9.55354
9.55523
9.5567
9.55776
9.5584
9.55871
5.02981
5.0416
5.06684
5.10921
5.17572
5.27856
5.43756
5.67663
5.99262
6.2901
6.57345
6.86107
7.11306
7.34493
7.57482
7.77628
7.96213
8.14341
8.28973
8.40742
8.51324
8.61651
8.70583
8.78623
8.86333
8.92902
8.98707
9.04173
9.08786
9.12866
9.16965
9.21301
9.25112
9.28537
9.31815
9.34606
9.37082
9.39433
9.41442
9.43233
9.44917
9.46255
9.47304
9.48203
9.49033
9.4973
9.50334
9.50889
9.51354
9.51756
9.52126
9.52441
9.52724
9.53011
9.53317
9.53589
9.53837
9.54077
9.54278
9.54452
9.54608
9.54718
9.54782
9.54812
4.88471
4.89527
4.91799
4.95648
5.01788
5.11552
5.27346
5.52696
5.88446
6.19876
6.49211
6.80142
7.05953
7.29495
7.53827
7.74302
7.93206
8.12591
8.27411
8.38861
8.49282
8.59988
8.68913
8.76915
8.84915
8.91471
8.97222
9.02845
9.07388
9.11324
9.15411
9.20014
9.2388
9.27315
9.3073
9.33525
9.35987
9.38421
9.40428
9.42219
9.43984
9.4532
9.46327
9.47196
9.48036
9.48719
9.49308
9.49869
9.50324
9.50715
9.51086
9.51391
9.51661
9.51946
9.5227
9.52545
9.52795
9.53048
9.53253
9.5343
9.53598
9.5371
9.53774
9.53803
4.74494
4.75417
4.77413
4.80822
4.86345
4.95378
5.10729
5.37378
5.78521
6.11343
6.41278
6.74933
7.01053
7.24639
7.50705
7.71274
7.90283
8.11359
8.26244
8.37161
8.47301
8.5857
8.67406
8.75283
8.837
8.9018
8.95815
9.01679
9.06111
9.09834
9.13875
9.18856
9.22743
9.26148
9.29753
9.32523
9.34943
9.37494
9.39479
9.41251
9.43134
9.44457
9.45407
9.46236
9.47097
9.47761
9.48329
9.48905
9.49346
9.49721
9.50098
9.5039
9.50643
9.50924
9.51273
9.5155
9.51799
9.5207
9.52275
9.52453
9.52637
9.52752
9.52813
9.5284
4.61046
4.6183
4.6353
4.66457
4.71267
4.79353
4.93839
5.21448
5.69766
6.03438
6.33363
6.70619
6.96592
7.19777
7.48206
7.68517
7.87306
8.10729
8.25479
8.35604
8.45308
8.57429
8.66049
8.73674
8.82708
8.89021
8.94449
9.00692
9.04952
9.08381
9.12323
9.17845
9.217
9.25014
9.28892
9.31596
9.33933
9.36658
9.38591
9.40316
9.4237
9.43666
9.44537
9.45316
9.46217
9.46854
9.47393
9.47994
9.48416
9.4877
9.49161
9.49436
9.49668
9.49941
9.50326
9.506
9.50844
9.5114
9.51343
9.51519
9.51725
9.51841
9.51898
9.51922
4.48123
4.48763
4.50156
4.52568
4.56583
4.63511
4.76628
5.04541
5.62579
5.96183
6.25202
6.67405
6.92552
7.14703
7.46472
7.66003
7.84084
8.10827
8.25121
8.3415
8.43206
8.56621
8.64832
8.72021
8.81981
8.87984
8.93077
8.99907
9.03912
9.0695
9.10711
9.17012
9.20745
9.23885
9.28164
9.30739
9.32936
9.35922
9.37758
9.39396
9.41701
9.42943
9.43713
9.44426
9.45397
9.45994
9.46493
9.47138
9.47532
9.47859
9.48274
9.48528
9.48732
9.48992
9.4943
9.49695
9.49928
9.50258
9.50454
9.50623
9.50859
9.50974
9.51025
9.51046
4.35717
4.36212
4.3729
4.39168
4.42327
4.47905
4.59075
4.86146
5.57511
5.89583
6.16423
6.65592
6.88909
7.0914
7.45719
7.63706
7.80363
8.11841
8.25168
8.32757
8.40874
8.56233
8.63744
8.70236
8.81577
8.8706
8.91636
8.99366
9.02988
9.05528
9.08982
9.16406
9.19876
9.2272
9.27593
9.29947
9.31925
9.35303
9.36977
9.38466
9.4114
9.42287
9.42929
9.43556
9.44641
9.45178
9.45621
9.46337
9.46692
9.4698
9.47437
9.47663
9.47833
9.48071
9.48586
9.48831
9.49044
9.49425
9.49606
9.49761
9.50041
9.5015
9.50193
9.5021
4.23821
4.2417
4.24934
4.26267
4.2853
4.32603
4.41215
4.6556
5.55322
5.83626
6.06519
6.65607
6.85635
7.02715
7.46257
7.61599
7.75802
8.14039
8.25601
8.31389
8.38154
8.56392
8.62772
8.68202
8.81588
8.86238
8.90045
8.99127
9.02178
9.04107
9.07061
9.16094
9.19088
9.2147
9.27218
9.29215
9.30863
9.34827
9.36242
9.37497
9.40707
9.41694
9.42181
9.42693
9.43955
9.44405
9.4477
9.45596
9.45893
9.46129
9.46653
9.4684
9.46969
9.47172
9.47796
9.48008
9.48187
9.48641
9.48796
9.48928
9.4927
9.49366
9.49399
9.49412
4.12423
4.1263
4.13082
4.13874
4.15224
4.1769
4.23163
4.41831
5.57029
5.78264
5.9481
6.68036
6.82686
6.94935
7.48514
7.59655
7.69956
8.17789
8.26372
8.3002
8.34845
8.57278
8.61902
8.65764
8.82138
8.85504
8.88198
8.9927
9.01472
9.02684
9.04847
9.16169
9.18372
9.20065
9.27092
9.28537
9.29704
9.3453
9.35549
9.3645
9.40431
9.41158
9.41463
9.41822
9.43348
9.43672
9.43926
9.44921
9.45133
9.45297
9.45924
9.46057
9.46137
9.46286
9.47067
9.47222
9.47351
9.47911
9.48024
9.48119
9.48548
9.48621
9.48642
9.48649
4.01512
4.0158
4.01729
4.01991
4.02437
4.03259
4.05155
4.13683
5.63972
5.73402
5.80408
6.7367
6.80002
6.85158
7.53071
7.57843
7.62243
8.23594
8.27389
8.28645
8.30684
8.59131
8.61113
8.62726
8.83399
8.8484
8.85958
8.9991
9.00854
9.01271
9.02213
9.16756
9.17716
9.18422
9.27287
9.27905
9.2839
9.3446
9.34894
9.35274
9.4035
9.4067
9.40774
9.40923
9.42837
9.42974
9.43078
9.44319
9.44409
9.44476
9.45255
9.45311
9.45339
9.45404
9.46406
9.46473
9.46527
9.47238
9.47287
9.47327
9.47878
9.47911
9.47918
9.4792
)
;

boundaryField
{
    left
    {
        type            zeroGradient;
    }
    right
    {
        type            zeroGradient;
    }
    interface
    {
        type            fixedValue;
        value           nonuniform List<scalar> 
64
(
3.96177
3.96177
3.96177
3.96177
3.96177
3.96177
3.96177
3.96177
5.71089
5.71089
5.71089
6.78721
6.78721
6.78721
7.56968
7.56968
7.56968
8.27953
8.27953
8.27953
8.27953
8.60737
8.60737
8.60737
8.84524
8.84524
8.84524
9.00566
9.00566
9.00566
9.00566
9.17402
9.17402
9.17402
9.276
9.276
9.276
9.34575
9.34575
9.34575
9.40437
9.40437
9.40437
9.40437
9.42634
9.42634
9.42634
9.44056
9.44056
9.44056
9.44947
9.44947
9.44947
9.44947
9.46107
9.46107
9.46107
9.46926
9.46926
9.46926
9.47564
9.47564
9.47564
9.47564
)
;
    }
    bottom
    {
        type            fixedValue;
        value           uniform 10;
    }
    defaultFaces
    {
        type            empty;
    }
}


// ************************************************************************* //
