/*--------------------------------*- C++ -*----------------------------------*\
| =========                 |                                                 |
| \\      /  F ield         | OpenFOAM: The Open Source CFD Toolbox           |
|  \\    /   O peration     | Version:  5.x                                   |
|   \\  /    A nd           | Web:      www.OpenFOAM.org                      |
|    \\/     M anipulation  |                                                 |
\*---------------------------------------------------------------------------*/
FoamFile
{
    version     2.0;
    format      ascii;
    class       volScalarField;
    location    "9.7";
    object      gradTx;
}
// * * * * * * * * * * * * * * * * * * * * * * * * * * * * * * * * * * * * * //

dimensions      [0 -1 0 1 0 0 0];

internalField   nonuniform List<scalar> 
2048
(
0.0222081
0.0663774
0.109784
0.151849
0.191916
0.229256
0.263109
0.292745
0.317541
0.337047
0.351032
0.359503
0.362691
0.361014
0.355034
0.345402
0.332814
0.317964
0.301518
0.284083
0.26619
0.248283
0.230717
0.213761
0.197607
0.182379
0.168144
0.154924
0.1427
0.131426
0.121036
0.111449
0.102582
0.0943548
0.0866917
0.0795297
0.0728169
0.0665129
0.060588
0.0550215
0.0497999
0.0449145
0.0403594
0.0361296
0.0322192
0.0286206
0.0253236
0.0223162
0.019584
0.0171117
0.0148825
0.0128796
0.0110855
0.00948297
0.00805471
0.00678378
0.00565347
0.00464732
0.00374899
0.00294218
0.0022105
0.00153734
0.000905907
0.000299257
0.0658572
0.196861
0.325659
0.450559
0.569611
0.680627
0.781307
0.869434
0.94311
1.00097
1.04231
1.06716
1.07623
1.07081
1.0526
1.02355
0.985755
0.941306
0.892186
0.840205
0.78694
0.733708
0.681555
0.63127
0.583412
0.538338
0.496241
0.457172
0.421073
0.3878
0.357149
0.328877
0.302733
0.278471
0.25587
0.23474
0.214928
0.196316
0.178818
0.162373
0.146944
0.132506
0.119044
0.106545
0.0949912
0.0843609
0.0746244
0.0657452
0.0576811
0.0503858
0.04381
0.0379031
0.0326137
0.0278903
0.023682
0.0199386
0.0166107
0.0136497
0.0110075
0.00863587
0.00648652
0.00451027
0.00265723
0.00087762
0.108135
0.323306
0.53504
0.74063
0.936866
1.12008
1.28634
1.43183
1.55329
1.64834
1.71582
1.7558
1.76954
1.75925
1.72784
1.67865
1.61518
1.54092
1.45919
1.37298
1.28489
1.19709
1.11126
1.02869
0.950238
0.87648
0.807698
0.743955
0.685135
0.630981
0.581136
0.535189
0.492707
0.45328
0.416537
0.382166
0.349918
0.319602
0.291081
0.264263
0.239091
0.21553
0.193562
0.173167
0.154321
0.136989
0.121122
0.106659
0.0935317
0.0816615
0.0709675
0.0613662
0.0527731
0.0451038
0.0382749
0.0322044
0.0268118
0.0220178
0.0177442
0.0139128
0.0104448
0.00725996
0.00427554
0.00141147
0.149325
0.446597
0.739516
1.02449
1.29707
1.55203
1.78364
1.98627
2.15504
2.28648
2.37889
2.43247
2.44914
2.43219
2.38586
2.31497
2.22453
2.11948
2.00449
1.88374
1.76087
1.63883
1.51993
1.40586
1.29778
1.19639
1.10205
1.01479
0.934422
0.860545
0.792634
0.730081
0.672262
0.618588
0.568537
0.521678
0.477669
0.436256
0.397259
0.360561
0.326094
0.293824
0.263733
0.235805
0.21001
0.186303
0.164616
0.144863
0.126946
0.110757
0.096183
0.0831072
0.0714131
0.0609844
0.0517063
0.043466
0.0361535
0.0296608
0.0238811
0.018708
0.0140341
0.00974967
0.00573881
0.00189339
0.189583
0.567251
0.940077
1.30376
1.65267
1.97986
2.27753
2.53787
2.75409
2.92139
3.03753
3.1029
3.12028
3.09427
3.03065
2.93584
2.81648
2.67903
2.52957
2.37352
2.21551
2.05928
1.90768
1.76276
1.62588
1.49786
1.37905
1.26943
1.1687
1.0763
0.991494
0.913457
0.841345
0.774377
0.711874
0.653288
0.598194
0.546283
0.497341
0.451238
0.407906
0.367318
0.329471
0.294356
0.261947
0.232186
0.204986
0.180237
0.157809
0.137562
0.11935
0.103025
0.0884393
0.0754444
0.0638951
0.0536495
0.0445694
0.0365195
0.0293668
0.0229783
0.01722
0.0119542
0.00703185
0.00231838
0.228947
0.685428
1.13716
1.57936
2.00527
2.40605
2.77141
3.09085
3.35524
3.55814
3.69672
3.77176
3.78718
3.74915
3.66526
3.54376
3.39299
3.22106
3.0355
2.84301
2.64924
2.45866
2.2746
2.09939
1.93452
1.78082
1.63861
1.50779
1.38792
1.27822
1.17774
1.08539
1.00006
0.920771
0.846679
0.777124
0.711609
0.649782
0.591408
0.536351
0.484554
0.436016
0.390756
0.348785
0.310083
0.274582
0.242177
0.212724
0.186062
0.162019
0.140414
0.121069
0.103803
0.0884377
0.0747986
0.0627152
0.0520226
0.0425606
0.0341717
0.0266985
0.0199817
0.0138582
0.00814526
0.00268327
0.267337
0.800951
1.33065
1.85154
2.35576
2.83233
3.26797
3.64878
3.96261
4.20106
4.36068
4.44291
4.45317
4.39965
4.29203
4.14056
3.95548
3.7466
3.52298
3.29266
3.06231
2.83712
2.6208
2.41584
2.22375
2.04533
1.8808
1.72995
1.59216
1.46645
1.35156
1.24608
1.14865
1.05802
0.973191
0.89341
0.818117
0.746931
0.679608
0.616019
0.556131
0.499979
0.447623
0.399108
0.354423
0.313492
0.276182
0.242317
0.211699
0.184119
0.159365
0.137226
0.117491
0.0999519
0.0844044
0.0706505
0.0585004
0.0477712
0.0382833
0.0298569
0.0223096
0.0154543
0.00907425
0.00298634
0.304561
0.913314
1.51995
2.11987
2.70428
3.25978
3.76933
4.21471
4.57987
4.85399
5.03304
5.1195
5.12089
5.04787
4.91258
4.72752
4.50489
4.25627
3.99238
3.72264
3.45482
3.19473
2.94636
2.71222
2.49373
2.29155
2.10578
1.93608
1.78163
1.64121
1.51321
1.39587
1.28744
1.18645
1.09173
1.00244
0.917984
0.837967
0.762148
0.690416
0.622774
0.559311
0.50015
0.445382
0.395012
0.348952
0.307036
0.269048
0.234748
0.203889
0.176226
0.151516
0.129521
0.110002
0.0927246
0.0774648
0.0640095
0.0521549
0.0417027
0.0324533
0.0242024
0.016741
0.00981767
0.00322703
0.340321
1.0217
1.70393
2.38332
3.05034
3.68885
4.27715
4.79137
5.2104
5.52041
5.71694
5.80414
5.79232
5.69527
5.52801
5.30543
5.04176
4.75042
4.44383
4.13298
3.82675
3.53153
3.2514
2.98873
2.74469
2.51974
2.31382
2.12644
1.95661
1.80283
1.66309
1.53516
1.41688
1.3065
1.2027
1.10457
1.01152
0.923168
0.839275
0.759755
0.684658
0.614149
0.548441
0.48769
0.431923
0.381032
0.334808
0.292983
0.255271
0.221384
0.191045
0.163984
0.139933
0.118623
0.0997908
0.0831852
0.0685713
0.0557282
0.0444419
0.0344956
0.0256653
0.0177219
0.0103772
0.00340565
0.37422
1.125
1.88103
2.64026
3.3928
4.11945
4.79272
5.38131
5.85744
6.20357
6.41516
6.49887
6.46884
6.34276
6.1389
5.87468
5.56635
5.22912
4.87725
4.52351
4.17797
3.84749
3.53603
3.2456
2.97696
2.73026
2.50527
2.30138
2.11746
1.95171
1.80164
1.66445
1.53747
1.41864
1.30652
1.20018
1.09908
1.00284
0.911264
0.824276
0.741983
0.664652
0.59262
0.526136
0.465252
0.409826
0.35959
0.314212
0.273352
0.236682
0.203895
0.174693
0.148783
0.125867
0.10565
0.0878519
0.0722192
0.0585172
0.0465205
0.0359984
0.0267084
0.018404
0.0107568
0.00352316
0.405777
1.22183
2.04919
2.88843
3.72987
4.55097
5.31705
5.98705
6.52426
6.90661
7.13013
7.20529
7.15131
6.9907
6.74539
6.43535
6.07869
5.6923
5.29242
4.89392
4.50827
4.14259
3.80045
3.48318
3.19095
2.92354
2.68054
2.46129
2.26455
2.08827
1.92938
1.78431
1.64978
1.5234
1.40366
1.28968
1.181
1.07731
0.97841
0.884243
0.79497
0.710989
0.632819
0.560833
0.495108
0.435445
0.381494
0.332846
0.289096
0.249879
0.214859
0.183719
0.156142
0.131799
0.11036
0.091516
0.0749953
0.0605553
0.047964
0.0369806
0.0273456
0.018797
0.010962
0.003581
0.434437
1.3106
2.20599
3.125
4.05906
4.98224
5.85094
6.6112
7.21429
7.63263
7.86401
7.9245
7.83999
7.63894
7.34726
6.98727
6.57868
6.13978
5.68897
5.24378
4.81736
4.41683
4.04489
3.70189
3.3872
3.10011
2.84013
2.60659
2.3983
2.21298
2.04687
1.89536
1.75442
1.62134
1.4946
1.37347
1.25766
1.14691
1.04102
0.939937
0.843854
0.75334
0.669172
0.591901
0.521612
0.458015
0.400652
0.349012
0.302622
0.261083
0.224035
0.191148
0.162087
0.136492
0.11399
0.0942361
0.0769481
0.0618808
0.0488019
0.0374643
0.0275927
0.0189128
0.0109997
0.00358103
0.459601
1.38954
2.34862
3.34658
4.37722
5.41148
6.39502
7.25666
7.93128
8.38471
8.61864
8.65709
8.53458
8.28687
7.94392
7.53007
7.06618
6.57137
6.06644
5.57255
5.10492
4.67024
4.26969
3.90229
3.56634
3.26058
2.98455
2.73773
2.51909
2.32629
2.1547
1.99829
1.85205
1.71304
1.57983
1.45197
1.32941
1.21197
1.09941
0.991652
0.888882
0.791879
0.701806
0.619455
0.544891
0.477675
0.417206
0.362851
0.31406
0.270411
0.231527
0.197072
0.166704
0.140026
0.116612
0.0960772
0.0781306
0.0625351
0.0490658
0.0374737
0.0274675
0.0187645
0.0108782
0.00352545
0.480647
1.45678
2.47402
3.54923
4.68044
5.83631
6.94977
7.92678
8.67947
9.16598
9.39554
9.40316
9.23421
8.93339
8.53454
8.0633
7.5411
6.98695
6.42428
5.8795
5.3706
4.90292
4.47528
4.08504
3.7291
3.40562
3.1144
2.85516
2.6273
2.42866
2.25352
2.09385
1.94337
1.79909
1.65982
1.52553
1.39657
1.27281
1.1539
1.0397
0.930315
0.826778
0.730832
0.643608
0.565078
0.494572
0.431311
0.374515
0.323549
0.277986
0.237443
0.201585
0.170078
0.142485
0.118308
0.0971081
0.0785981
0.0625614
0.0487886
0.0370334
0.0269882
0.0183666
0.0106066
0.00341692
0.496965
1.51043
2.57895
3.72853
4.96401
6.25353
7.51554
8.62562
9.46375
9.97953
10.1959
10.1623
9.93735
9.57698
9.11805
8.58638
8.00351
7.38656
6.76185
6.16376
5.61399
5.11507
4.6622
4.25093
3.87634
3.53598
3.2303
2.95935
2.72322
2.52047
2.34403
2.18286
2.0291
1.88007
1.73504
1.5945
1.45946
1.32973
1.20478
1.0844
0.968427
0.858193
0.756337
0.66446
0.582311
0.50886
0.443131
0.384164
0.331231
0.283935
0.241892
0.204778
0.172294
0.143958
0.119162
0.0974007
0.078407
0.0620032
0.0480032
0.0361684
0.0261733
0.017734
0.0101956
0.00325865
0.507993
1.54869
2.66012
3.87968
5.2224
6.65902
8.09248
9.35821
10.29
10.8283
11.0203
10.9334
10.6418
10.2157
9.69323
9.0987
8.45376
7.77053
7.07836
6.42416
5.83472
5.30705
4.83112
4.4009
4.00906
3.65244
3.33292
3.05076
2.80704
2.60205
2.42697
2.26623
2.10996
1.95658
1.80591
1.65915
1.51834
1.38303
1.25237
1.12611
1.00352
0.886257
0.778369
0.682106
0.596737
0.520702
0.45284
0.391967
0.337248
0.288383
0.244985
0.206741
0.173435
0.144532
0.119263
0.0970286
0.0776132
0.0609031
0.0467418
0.0349029
0.0250411
0.0168822
0.00965673
0.00305461
0.513256
1.56996
2.71436
3.9976
5.44917
7.04747
8.68046
10.131
11.1651
11.7149
11.8689
11.7151
11.3444
10.8474
10.2588
9.59951
8.8926
8.13965
7.37281
6.65916
6.03244
5.47944
4.98276
4.536
4.12835
3.75579
3.42298
3.12985
2.87883
2.6736
2.50318
2.34498
2.18667
2.02916
1.87283
1.7197
1.57347
1.433
1.29694
1.1652
1.03593
0.911072
0.796926
0.696629
0.608518
0.530261
0.460619
0.3981
0.341742
0.291457
0.246831
0.207554
0.173574
0.144298
0.118704
0.096066
0.0762701
0.059302
0.0450359
0.0332597
0.0236089
0.0158271
0.00900315
0.00280973
0.512395
1.57293
2.73877
4.07708
5.637
7.41209
9.27879
10.9523
12.0977
12.641
12.7414
12.5055
12.0413
11.4696
10.8137
10.0878
9.32135
8.49537
7.64387
6.8667
6.20693
5.63317
5.11791
4.65746
4.23549
3.84676
3.50125
3.19715
2.93843
2.73514
2.57364
2.42031
2.25987
2.09834
1.93619
1.77624
1.62504
1.47992
1.3387
1.2021
1.06606
0.93269
0.811934
0.708113
0.617839
0.537702
0.466655
0.402748
0.344845
0.29328
0.247541
0.207289
0.172778
0.143352
0.117586
0.0945864
0.0744273
0.0572385
0.0429156
0.03126
0.0218932
0.0145852
0.00824957
0.00253014
0.505206
1.55669
2.73092
4.11304
5.77768
7.74421
9.88587
11.8332
13.0984
13.6067
13.6364
13.3027
12.7271
12.0799
11.3569
10.5622
9.7421
8.84014
7.88964
7.04393
6.35825
5.76959
5.23723
4.76666
4.33193
3.92595
3.56861
3.25331
2.98539
2.78644
2.63954
2.49363
2.33006
2.1646
1.99638
1.82873
1.67327
1.52408
1.37781
1.23728
1.09438
0.95109
0.823225
0.71665
0.624924
0.543176
0.471142
0.406107
0.346672
0.293972
0.247231
0.206004
0.171097
0.141789
0.116019
0.0926609
0.0721286
0.0547485
0.0404108
0.0289222
0.0199087
0.0131737
0.00741249
0.00222327
0.491658
1.52083
2.68902
4.10073
5.86227
8.03287
10.4985
12.7884
14.1806
14.6092
14.5524
14.1049
13.3949
12.6759
11.8883
11.0199
10.158
9.17787
8.10732
7.18696
6.4869
5.89073
5.34111
4.86516
4.41939
3.99362
3.62607
3.29918
3.01891
2.82688
2.70241
2.56667
2.3975
2.22843
2.05385
1.87691
1.71835
1.56583
1.41427
1.27132
1.12153
0.966142
0.830503
0.722364
0.630053
0.546806
0.474283
0.408393
0.347312
0.293651
0.246022
0.203736
0.168563
0.139714
0.114122
0.0903558
0.0694097
0.0518651
0.0375513
0.0262619
0.0176675
0.0116113
0.00651041
0.00189792
0.471902
1.46547
2.61212
4.03609
5.88128
8.26431
11.1109
13.8376
15.361
15.6413
15.4875
14.9118
14.0347
13.2563
12.4085
11.4567
10.5736
9.5145
8.29278
7.29042
6.59422
5.99954
5.42931
4.95478
4.50001
4.04954
3.67488
3.33599
3.03761
2.85534
2.76423
2.64157
2.46197
2.2903
2.10917
1.92021
1.76055
1.6056
1.44783
1.30492
1.14834
0.977558
0.833306
0.725438
0.633592
0.548657
0.476292
0.409851
0.346809
0.292436
0.244058
0.200499
0.165183
0.137242
0.112032
0.0877285
0.0662961
0.0486187
0.034369
0.0232909
0.0151785
0.00991887
0.00556411
0.00156411
0.446278
1.39133
2.50021
3.91605
5.82508
8.42155
11.7131
15.0074
16.6617
16.6883
16.44
15.7251
14.6329
13.8209
12.9205
11.8648
10.9953
9.85889
8.4398
7.34701
6.68281
6.10022
5.50042
5.03776
4.57651
4.09253
3.7166
3.36559
3.03945
2.86995
2.82771
2.72107
2.52253
2.35078
2.16314
1.95756
1.80026
1.64403
1.47788
1.33894
1.17594
0.984815
0.830956
0.726167
0.636028
0.548688
0.477404
0.410773
0.345135
0.29045
0.241512
0.196271
0.16093
0.134504
0.109908
0.0848226
0.0628007
0.0450383
0.0308995
0.0200161
0.0124458
0.00812071
0.00459683
0.0012328
0.415295
1.29968
2.35435
3.73895
5.68437
8.48406
12.2885
16.3333
18.1114
17.7243
17.4098
16.5505
15.1695
14.372
13.4296
12.2316
11.4324
10.224
8.53914
7.34695
6.7572
6.19867
5.55109
5.11693
4.65254
4.11997
3.75335
3.39075
3.02141
2.86782
2.89656
2.80872
2.57706
2.41063
2.21703
1.98718
1.83811
1.68204
1.50317
1.37453
1.20589
0.987051
0.822506
0.725014
0.638008
0.546686
0.477889
0.411526
0.342155
0.287831
0.238607
0.190984
0.155735
0.131659
0.10794
0.0816597
0.0589215
0.0411525
0.0271852
0.0164383
0.00946657
0.00624633
0.00363443
0.000915464
0.379608
1.19232
2.1767
3.50477
5.45102
8.42768
12.811
17.8633
19.7479
18.7066
18.4001
17.4002
15.6152
14.9158
13.9461
12.5363
11.8976
10.6281
8.57717
7.27723
6.82473
6.3031
5.57486
5.19613
4.73313
4.12703
3.78803
3.41559
2.97921
2.84471
2.97588
2.90917
2.62166
2.47101
2.27275
2.00617
1.87512
1.72102
1.52155
1.41319
1.24032
0.982922
0.806674
0.7227
0.640409
0.542165
0.478082
0.412592
0.337569
0.284743
0.23564
0.184506
0.149475
0.128901
0.106354
0.0782285
0.0546404
0.0369912
0.0232785
0.0125506
0.00622911
0.00433288
0.00270543
0.000623439
0.339985
1.07147
1.97045
3.21551
5.11891
8.22505
13.2399
19.6614
21.6222
19.5683
19.4205
18.2957
15.9266
15.4644
14.4865
12.7461
12.4092
11.0973
8.53413
7.12096
6.89661
6.42482
5.56063
5.28079
4.82532
4.10555
3.82473
3.44611
2.90694
2.79452
3.07266
3.02857
2.64983
2.53378
2.33326
2.01
1.91295
1.76309
1.52949
1.457
1.28218
0.9704
0.781782
0.720312
0.644398
0.534227
0.478427
0.414616
0.33084
0.281405
0.233013
0.176615
0.141959
0.126477
0.105426
0.0744699
0.0499226
0.0325881
0.0192464
0.00833574
0.00270975
0.0024283
0.00184059
0.00036721
0.297266
0.939685
1.73972
2.87527
4.68501
7.84676
13.5141
21.8121
23.8028
20.208
20.4906
19.2723
16.04
16.0388
15.077
12.811
12.9927
11.6669
8.38179
6.85659
6.98928
6.57916
5.49053
5.37872
4.93903
4.04256
3.86928
3.49081
2.79658
2.70877
3.19635
3.17511
2.65138
2.60199
2.40299
1.99179
1.95424
1.81142
1.5215
1.50879
1.33545
0.946524
0.745688
0.719424
0.651532
0.521375
0.479543
0.41848
0.321086
0.278122
0.23127
0.166974
0.132918
0.124701
0.105497
0.0702575
0.0447192
0.0279822
0.0151763
0.00376291
-0.00113057
0.000595647
0.00107217
0.000155571
0.252318
0.799714
1.48939
2.49034
4.15052
7.2635
13.5436
24.4265
26.3817
20.4769
21.6467
20.3843
15.8628
16.673
15.7569
12.6566
13.6839
12.3848
8.0805
6.45719
7.12588
6.78674
5.33713
5.50137
5.08816
3.91839
3.93003
3.56147
2.63742
2.57589
3.35963
3.35967
2.61091
2.68044
2.48843
1.94133
2.00303
1.87065
1.48935
1.57254
1.40545
0.907068
0.695742
0.722256
0.663866
0.50127
0.482321
0.425386
0.306946
0.275335
0.231141
0.155087
0.121987
0.123977
0.106982
0.065372
0.0389715
0.02322
0.0111815
-0.00121618
-0.00535042
-0.0010813
0.000432247
-5.19546e-06
0.205998
0.65435
1.22481
2.06897
3.52194
6.44971
13.1997
27.6483
29.4834
20.1621
22.9489
21.7112
15.2622
17.4191
16.5837
12.1753
14.533
13.3143
7.57564
5.88997
7.33799
7.07503
5.05995
5.66534
5.29193
3.70413
4.01887
3.67395
2.4155
2.38049
3.57913
3.59669
2.50606
2.77661
2.59885
1.84387
2.06539
1.94741
1.42105
1.65374
1.49916
0.846132
0.628756
0.731829
0.684092
0.470426
0.488059
0.436963
0.286402
0.273698
0.23359
0.140251
0.108699
0.124823
0.110393
0.0594697
0.0326213
0.0183555
0.0074097
-0.00667252
-0.0100325
-0.00249094
-4.98182e-05
-0.000112023
0.159114
0.50631
0.951539
1.62103
2.8118
5.38893
12.3017
31.6617
33.2742
18.9659
24.4916
23.3653
14.0517
18.3538
17.6386
11.2148
15.6094
14.5373
6.79321
5.11586
7.66733
7.48024
4.60116
5.8945
5.57657
3.35858
4.15259
3.84905
2.11283
2.10242
3.87635
3.90529
2.30515
2.90172
2.74712
1.67846
2.15013
2.05101
1.29962
1.76004
1.62563
0.755654
0.541012
0.752131
0.715707
0.423823
0.498637
0.455386
0.25656
0.274168
0.239863
0.121498
0.0924668
0.127894
0.116352
0.0520435
0.0256259
0.0134481
0.00405177
-0.0127059
-0.0152892
-0.00348486
-0.000351165
-0.000165483
0.112397
0.358115
0.675042
1.15745
2.03898
4.08143
10.6014
36.6995
37.9756
16.4811
26.4166
25.5007
11.9736
19.5868
19.0332
9.56497
17.0083
16.1579
5.63483
4.08972
8.1674
8.04973
3.88035
6.22257
5.97722
2.82451
4.35467
4.11334
1.70672
1.71588
4.27855
4.31053
1.96452
3.07215
2.9507
1.41615
2.26976
2.19418
1.10156
1.9019
1.79628
0.624826
0.428324
0.788282
0.763214
0.35446
0.516742
0.483523
0.213384
0.278135
0.251541
0.0975267
0.0725872
0.134007
0.125618
0.0423767
0.0179804
0.0085583
0.00135204
-0.0194519
-0.0212684
-0.00386695
-0.000460605
-0.000169657
0.0664826
0.212001
0.400394
0.689486
1.22818
2.55431
7.76509
43.0515
43.8792
12.1618
28.9283
28.3223
8.67936
21.2708
20.918
6.94172
18.8588
18.3057
3.97208
2.76083
8.90497
8.8448
2.7885
6.69627
6.5401
2.02429
4.65742
4.49995
1.16902
1.18838
4.81961
4.84506
1.42526
3.31112
3.23273
1.01767
2.4416
2.39396
0.795121
2.09358
2.02537
0.43944
0.286164
0.846654
0.832365
0.252817
0.546145
0.525075
0.151384
0.28758
0.270582
0.0666217
0.0482373
0.144171
0.139105
0.0294892
0.009749
0.0037378
-0.000379386
-0.0270899
-0.0281602
-0.00338047
-0.000385249
-0.000131173
0.021897
0.0698571
0.132058
0.227879
0.408315
0.874366
3.35255
51.0737
51.3644
5.2905
32.3123
32.0967
3.70691
23.6129
23.4905
2.96936
21.3333
21.1385
1.64019
1.07424
9.96104
9.94408
1.1811
7.379
7.32482
0.854902
5.1047
5.04905
0.465435
0.479759
5.54086
5.55098
0.60964
3.65068
3.62323
0.430877
2.68912
2.67271
0.33828
2.35414
2.33023
0.18116
0.109868
0.934965
0.930448
0.10626
0.592037
0.584742
0.0632571
0.305275
0.299357
0.0265719
0.0184872
0.159599
0.157911
0.0120766
0.00110431
-0.000984888
-0.000752943
-0.0358517
-0.0362039
-0.0016931
-0.000158559
-5.69704e-05
)
;

boundaryField
{
    left
    {
        type            calculated;
        value           uniform 0;
    }
    right
    {
        type            calculated;
        value           uniform 0;
    }
    interface
    {
        type            calculated;
        value           nonuniform List<scalar> 
64
(
0.021897
0.0698571
0.132058
0.227879
0.408315
0.874366
3.35255
51.0737
51.3644
5.2905
32.3123
32.0967
3.70691
23.6129
23.4905
2.96936
21.3333
21.1385
1.64019
1.07424
9.96104
9.94408
1.1811
7.379
7.32482
0.854902
5.1047
5.04905
0.465435
0.479759
5.54086
5.55098
0.60964
3.65068
3.62323
0.430877
2.68912
2.67271
0.33828
2.35414
2.33023
0.18116
0.109868
0.934965
0.930448
0.10626
0.592037
0.584742
0.0632571
0.305275
0.299357
0.0265719
0.0184872
0.159599
0.157911
0.0120766
0.00110431
-0.000984888
-0.000752943
-0.0358517
-0.0362039
-0.0016931
-0.000158559
-5.69704e-05
)
;
    }
    bottom
    {
        type            calculated;
        value           nonuniform List<scalar> 
64
(
0.0222081
0.0663774
0.109784
0.151849
0.191916
0.229256
0.263109
0.292745
0.317541
0.337047
0.351032
0.359503
0.362691
0.361014
0.355034
0.345402
0.332814
0.317964
0.301518
0.284083
0.26619
0.248283
0.230717
0.213761
0.197607
0.182379
0.168144
0.154924
0.1427
0.131426
0.121036
0.111449
0.102582
0.0943548
0.0866917
0.0795297
0.0728169
0.0665129
0.060588
0.0550215
0.0497999
0.0449145
0.0403594
0.0361296
0.0322192
0.0286206
0.0253236
0.0223162
0.019584
0.0171117
0.0148825
0.0128796
0.0110855
0.00948297
0.00805471
0.00678378
0.00565347
0.00464732
0.00374899
0.00294218
0.0022105
0.00153734
0.000905907
0.000299257
)
;
    }
    defaultFaces
    {
        type            empty;
    }
}


// ************************************************************************* //
