/*--------------------------------*- C++ -*----------------------------------*\
| =========                 |                                                 |
| \\      /  F ield         | OpenFOAM: The Open Source CFD Toolbox           |
|  \\    /   O peration     | Version:  5.x                                   |
|   \\  /    A nd           | Web:      www.OpenFOAM.org                      |
|    \\/     M anipulation  |                                                 |
\*---------------------------------------------------------------------------*/
FoamFile
{
    version     2.0;
    format      ascii;
    class       volScalarField;
    location    "9.7";
    object      gradTy;
}
// * * * * * * * * * * * * * * * * * * * * * * * * * * * * * * * * * * * * * //

dimensions      [0 -1 0 1 0 0 0];

internalField   nonuniform List<scalar> 
2048
(
-20.1564
-20.0595
-19.8669
-19.5808
-19.2046
-18.7435
-18.2042
-17.5951
-16.9263
-16.209
-15.4552
-14.677
-13.8866
-13.0949
-12.3123
-11.5473
-10.8071
-10.0975
-9.42258
-8.78506
-8.18646
-7.62718
-7.10679
-6.62418
-6.17772
-5.76548
-5.38533
-5.03502
-4.71236
-4.41518
-4.14149
-3.88944
-3.65738
-3.44382
-3.24747
-3.06719
-2.90195
-2.75083
-2.61298
-2.48761
-2.37397
-2.2713
-2.1789
-2.09605
-2.02204
-1.95619
-1.89782
-1.8463
-1.801
-1.76135
-1.7268
-1.69682
-1.67096
-1.64878
-1.62988
-1.61389
-1.6005
-1.58941
-1.58038
-1.57319
-1.56765
-1.56363
-1.561
-1.55971
-20.2347
-20.137
-19.9426
-19.6536
-19.2733
-18.8067
-18.2606
-17.6434
-16.9656
-16.2386
-15.4748
-14.687
-13.8875
-13.0877
-12.298
-11.5271
-10.7824
-10.0695
-9.39231
-8.75359
-8.15463
-7.59572
-7.07623
-6.59492
-6.15003
-5.73952
-5.36117
-5.01266
-4.69172
-4.39618
-4.12398
-3.87327
-3.64239
-3.42989
-3.23447
-3.05501
-2.89051
-2.74008
-2.60287
-2.47812
-2.36506
-2.26299
-2.17116
-2.08887
-2.01542
-1.95011
-1.89227
-1.84124
-1.79642
-1.75721
-1.72306
-1.69347
-1.66796
-1.6461
-1.62749
-1.61176
-1.5986
-1.58772
-1.57887
-1.57182
-1.5664
-1.56246
-1.5599
-1.55863
-20.3835
-20.2843
-20.0866
-19.7923
-19.4043
-18.9274
-18.3682
-17.7356
-17.0403
-16.2946
-15.5119
-14.7055
-13.8886
-13.0732
-12.27
-11.4881
-10.7348
-10.0155
-9.33429
-8.69339
-8.09391
-7.53579
-7.01812
-6.53936
-6.09752
-5.69035
-5.31546
-4.97039
-4.65277
-4.36031
-4.09095
-3.84277
-3.61414
-3.40361
-3.20993
-3.03202
-2.86892
-2.71977
-2.58376
-2.46016
-2.34823
-2.24725
-2.15652
-2.07531
-2.00291
-1.93863
-1.88177
-1.83169
-1.78776
-1.74938
-1.71602
-1.68715
-1.66231
-1.64106
-1.62299
-1.60776
-1.59504
-1.58454
-1.57602
-1.56925
-1.56405
-1.56028
-1.55783
-1.55662
-20.5945
-20.4933
-20.2912
-19.9897
-19.5911
-19.0997
-18.522
-17.8671
-17.1466
-16.3739
-15.5636
-14.7304
-13.8886
-13.0509
-12.2287
-11.4311
-10.6657
-9.93773
-9.25089
-8.60719
-8.00722
-7.45049
-6.93562
-6.46067
-6.02331
-5.62099
-5.25109
-4.91096
-4.59807
-4.31003
-4.04467
-3.80007
-3.57458
-3.36681
-3.17554
-2.99977
-2.8386
-2.69122
-2.55689
-2.43489
-2.32453
-2.22511
-2.13591
-2.05622
-1.98531
-1.92248
-1.86702
-1.81827
-1.7756
-1.73841
-1.70615
-1.6783
-1.65439
-1.63399
-1.6167
-1.60217
-1.59006
-1.58011
-1.57205
-1.56567
-1.56079
-1.55726
-1.55496
-1.55384
-20.8604
-20.7569
-20.5499
-20.2399
-19.8284
-19.319
-18.7178
-18.0344
-17.2813
-16.4736
-15.6276
-14.7598
-13.8859
-13.0199
-12.1735
-11.3564
-10.5759
-9.83732
-9.14388
-8.49709
-7.89699
-7.34243
-6.83146
-6.36163
-5.93015
-5.53414
-5.17067
-4.83688
-4.53002
-4.24757
-3.98726
-3.74712
-3.52553
-3.32114
-3.13283
-2.95968
-2.80087
-2.65566
-2.52338
-2.40335
-2.29493
-2.19744
-2.11016
-2.03238
-1.96335
-1.90235
-1.84865
-1.80158
-1.76049
-1.72478
-1.69389
-1.66732
-1.64458
-1.62525
-1.60892
-1.59525
-1.58392
-1.57464
-1.56717
-1.56128
-1.55679
-1.55356
-1.55146
-1.55044
-21.1745
-21.0688
-20.8568
-20.5378
-20.112
-19.5817
-18.9527
-18.2347
-17.4418
-16.591
-15.7013
-14.7915
-13.8789
-12.9789
-12.1039
-11.2638
-10.4659
-9.71522
-9.01458
-8.36482
-7.76523
-7.21387
-6.70807
-6.24471
-5.82054
-5.43225
-5.07659
-4.75043
-4.45081
-4.17502
-3.92066
-3.68574
-3.46865
-3.26814
-3.08321
-2.91302
-2.75689
-2.61415
-2.48421
-2.36646
-2.26029
-2.16504
-2.08003
-2.0045
-1.9377
-1.87886
-1.82723
-1.78213
-1.7429
-1.70892
-1.67965
-1.65457
-1.6332
-1.61511
-1.59992
-1.58726
-1.57683
-1.56835
-1.56156
-1.55624
-1.55222
-1.54933
-1.54747
-1.54656
-21.5309
-21.4234
-21.2069
-20.8791
-20.4384
-19.8851
-19.2242
-18.4658
-17.6257
-16.7239
-15.7825
-14.8233
-13.8657
-12.9265
-12.0189
-11.1529
-10.3357
-9.57204
-8.86404
-8.21183
-7.61373
-7.06685
-6.56761
-6.11218
-5.69673
-5.31753
-4.971
-4.65371
-4.36244
-4.09427
-3.84666
-3.61758
-3.40547
-3.2092
-3.02792
-2.86096
-2.70773
-2.56768
-2.4403
-2.32505
-2.22137
-2.12864
-2.04617
-1.97321
-1.90893
-1.85255
-1.80328
-1.76041
-1.72327
-1.69125
-1.6638
-1.64039
-1.62056
-1.60387
-1.58994
-1.57842
-1.569
-1.5614
-1.55538
-1.55072
-1.54722
-1.54473
-1.54313
-1.54235
-21.9236
-21.8152
-21.5955
-21.2602
-20.8048
-20.2273
-19.531
-18.7263
-17.8314
-16.8702
-15.8689
-14.8528
-13.8443
-12.8612
-11.9175
-11.0233
-10.1855
-9.40822
-8.69314
-8.03937
-7.44409
-6.90321
-6.41209
-5.96609
-5.56078
-5.19201
-4.85586
-4.5486
-4.26674
-4.00708
-3.76692
-3.54417
-3.33738
-3.14557
-2.96812
-2.80451
-2.65432
-2.5171
-2.39242
-2.27983
-2.17883
-2.08885
-2.00919
-1.93906
-1.87759
-1.82393
-1.77726
-1.73684
-1.702
-1.67213
-1.64666
-1.62508
-1.60693
-1.59176
-1.57921
-1.56892
-1.5606
-1.55398
-1.5488
-1.54484
-1.54192
-1.53986
-1.53855
-1.53793
-22.3473
-22.239
-22.0182
-21.6777
-21.2092
-20.607
-19.8722
-19.0152
-18.0575
-17.0278
-15.958
-14.8779
-13.8125
-12.7814
-11.7987
-10.8744
-10.015
-9.22412
-8.50262
-7.84861
-7.25783
-6.72471
-6.24341
-5.80838
-5.41461
-5.05754
-4.73295
-4.43684
-4.16538
-3.91506
-3.68294
-3.46689
-3.2656
-3.07836
-2.90478
-2.74459
-2.59749
-2.46317
-2.34128
-2.23145
-2.13327
-2.04622
-1.9696
-1.90255
-1.84415
-1.79344
-1.74959
-1.71182
-1.67945
-1.65187
-1.62852
-1.60891
-1.59254
-1.57901
-1.56792
-1.55895
-1.5518
-1.54621
-1.54193
-1.53874
-1.53644
-1.53486
-1.53386
-1.5334
-22.7962
-22.6898
-22.471
-22.1287
-21.6498
-21.0238
-20.2477
-19.3323
-18.3026
-17.1948
-16.0475
-14.8959
-13.7684
-12.6856
-11.6616
-10.7059
-9.82437
-9.02003
-8.29316
-7.64063
-7.05639
-6.53306
-6.06338
-5.64088
-5.25996
-4.91578
-4.60389
-4.31998
-4.05988
-3.81968
-3.59612
-3.387
-3.19126
-3.00855
-2.83879
-2.68197
-2.53797
-2.40655
-2.28747
-2.18046
-2.08518
-2.00121
-1.92785
-1.86414
-1.80903
-1.76151
-1.72065
-1.68568
-1.65592
-1.63076
-1.60965
-1.5921
-1.57762
-1.56579
-1.55624
-1.54865
-1.54273
-1.53823
-1.53491
-1.53253
-1.53088
-1.52981
-1.52915
-1.52886
-23.2649
-23.1626
-22.9496
-22.6104
-22.1256
-21.4776
-20.6583
-19.6776
-18.566
-17.3691
-16.1347
-14.9044
-13.7097
-12.5723
-11.5054
-10.5174
-9.61354
-8.79627
-8.06541
-7.41651
-6.84124
-6.32993
-5.87376
-5.4653
-5.09847
-4.76828
-4.47011
-4.1994
-3.9516
-3.72229
-3.50772
-3.30564
-3.11534
-2.93697
-2.77088
-2.61734
-2.47638
-2.34784
-2.23155
-2.12734
-2.03501
-1.95424
-1.88433
-1.8242
-1.77263
-1.72848
-1.69079
-1.65875
-1.6317
-1.60905
-1.59028
-1.57487
-1.56235
-1.5523
-1.54433
-1.53816
-1.53351
-1.53014
-1.52782
-1.52629
-1.52534
-1.5248
-1.52449
-1.52439
-23.7478
-23.6522
-23.4499
-23.1202
-22.6357
-21.9694
-21.1054
-20.0519
-18.8466
-17.5485
-16.2169
-14.9004
-13.6344
-12.4401
-11.3292
-10.3088
-9.38269
-8.5531
-7.81993
-7.17731
-6.61386
-6.11704
-5.67629
-5.2833
-4.93164
-4.61638
-4.33287
-4.07632
-3.8418
-3.62415
-3.41894
-3.22382
-3.03869
-2.86437
-2.70168
-2.55128
-2.41328
-2.28754
-2.17398
-2.07251
-1.98311
-1.90565
-1.83941
-1.7831
-1.73529
-1.6947
-1.6603
-1.63129
-1.60703
-1.58697
-1.57059
-1.5574
-1.5469
-1.53866
-1.53232
-1.52758
-1.52424
-1.52204
-1.52074
-1.5201
-1.51989
-1.5199
-1.51995
-1.52006
-24.2392
-24.1534
-23.9678
-23.6557
-23.1797
-22.5007
-21.5914
-20.4566
-19.1437
-17.7304
-16.2908
-14.8812
-13.5402
-12.288
-11.1329
-10.0802
-9.13212
-8.29079
-7.55722
-6.92409
-6.37583
-5.89609
-5.47267
-5.09646
-4.76083
-4.46129
-4.19329
-3.9518
-3.73156
-3.52643
-3.33089
-3.14247
-2.96204
-2.79132
-2.63171
-2.48425
-2.34912
-2.2261
-2.11517
-2.01634
-1.92979
-1.85569
-1.79336
-1.74117
-1.69733
-1.66046
-1.62946
-1.60354
-1.58212
-1.5647
-1.55076
-1.53983
-1.53141
-1.52502
-1.52031
-1.51703
-1.515
-1.51399
-1.51376
-1.51404
-1.51458
-1.51517
-1.5156
-1.51591
-24.7335
-24.661
-24.499
-24.214
-23.7572
-23.0736
-22.1198
-20.8939
-19.4562
-17.9119
-16.3531
-14.8434
-13.4252
-12.1151
-10.9163
-9.83195
-8.86236
-8.00953
-7.27764
-6.65795
-6.12881
-5.66886
-5.26459
-4.90629
-4.58727
-4.30405
-4.05229
-3.82671
-3.62184
-3.43026
-3.24466
-3.0624
-2.88599
-2.71831
-2.56135
-2.41666
-2.28434
-2.16392
-2.05549
-1.95914
-1.87526
-1.80458
-1.74644
-1.69868
-1.65906
-1.62603
-1.59852
-1.57571
-1.55716
-1.5424
-1.53093
-1.5223
-1.516
-1.51148
-1.50839
-1.50656
-1.50585
-1.50605
-1.50691
-1.50814
-1.50947
-1.51067
-1.51148
-1.51201
-25.225
-25.1697
-25.0388
-24.7922
-24.368
-23.6911
-22.6953
-21.3666
-19.7826
-18.0893
-16.4001
-14.7838
-13.2874
-11.9211
-10.6795
-9.56494
-8.57424
-7.70933
-6.98131
-6.38004
-5.87469
-5.43715
-5.05369
-4.71426
-4.41204
-4.14554
-3.91069
-3.70172
-3.51348
-3.33671
-3.1613
-2.98431
-2.81099
-2.64572
-2.49088
-2.34882
-2.21931
-2.10134
-1.9953
-1.90121
-1.8197
-1.75246
-1.69888
-1.65594
-1.62073
-1.59168
-1.5677
-1.54799
-1.53229
-1.5202
-1.51121
-1.50493
-1.50078
-1.49815
-1.49666
-1.49624
-1.49685
-1.49827
-1.50025
-1.50246
-1.5046
-1.50643
-1.50763
-1.50837
-25.7083
-25.6739
-25.5825
-25.3872
-25.0118
-24.3569
-23.3241
-21.8788
-20.1206
-18.258
-16.428
-14.6986
-13.1248
-11.7061
-10.4232
-9.28032
-8.26898
-7.38996
-6.66803
-6.09161
-5.61561
-5.20275
-4.84159
-4.5218
-4.23601
-3.98647
-3.76914
-3.57729
-3.40713
-3.2469
-3.08193
-2.90874
-2.73736
-2.57382
-2.42047
-2.28097
-2.15439
-2.03867
-1.9349
-1.84283
-1.76318
-1.69939
-1.65087
-1.61323
-1.5826
-1.55762
-1.5372
-1.52051
-1.50764
-1.49823
-1.4917
-1.48779
-1.48585
-1.48511
-1.48517
-1.48612
-1.48803
-1.49069
-1.4938
-1.49702
-1.50001
-1.50249
-1.50407
-1.50503
-26.178
-26.1685
-26.125
-25.9951
-25.6879
-25.0749
-24.0142
-22.436
-20.4664
-18.4125
-16.4329
-14.5836
-12.936
-11.4712
-10.1477
-8.97972
-7.94846
-7.05065
-6.33705
-5.79407
-5.35416
-4.9674
-4.62978
-4.33038
-4.05984
-3.82739
-3.62827
-3.45361
-3.30326
-3.162
-3.00777
-2.83608
-2.66525
-2.50286
-2.35014
-2.21328
-2.08994
-1.97615
-1.8746
-1.78429
-1.70571
-1.64533
-1.6026
-1.57085
-1.54491
-1.52404
-1.5072
-1.4934
-1.4833
-1.47658
-1.47247
-1.47095
-1.47131
-1.47245
-1.47396
-1.47621
-1.47942
-1.48332
-1.48759
-1.49185
-1.49571
-1.49887
-1.50083
-1.502
-26.6292
-26.6483
-26.6611
-26.6114
-26.3949
-25.8499
-24.7761
-23.0459
-20.8139
-18.5458
-16.4121
-14.4339
-12.7194
-11.2185
-9.8537
-8.6652
-7.61553
-6.68986
-5.9869
-5.48915
-5.09358
-4.7326
-4.41967
-4.14159
-3.88384
-3.66867
-3.48871
-3.33054
-3.20215
-3.08335
-2.94025
-2.76642
-2.59462
-2.43308
-2.27976
-2.14589
-2.0264
-1.91395
-1.81471
-1.72599
-1.64716
-1.59014
-1.55425
-1.52917
-1.50784
-1.49113
-1.4779
-1.46673
-1.45935
-1.45533
-1.45356
-1.45446
-1.45722
-1.46027
-1.46309
-1.46653
-1.47103
-1.47619
-1.48164
-1.48697
-1.49175
-1.49559
-1.49793
-1.49929
-27.0574
-27.1082
-27.1852
-27.2311
-27.1303
-26.6862
-25.6229
-23.7194
-21.1531
-18.6492
-16.3641
-14.2432
-12.4738
-10.9522
-9.5407
-8.33931
-7.27465
-6.30471
-5.61508
-5.17905
-4.83803
-4.49936
-4.21242
-3.95733
-3.70786
-3.51053
-3.3513
-3.20748
-3.10372
-3.01247
-2.88119
-2.69945
-2.52523
-2.36486
-2.20896
-2.07883
-1.96435
-1.85206
-1.75553
-1.66842
-1.58722
-1.53356
-1.50605
-1.48861
-1.47154
-1.45901
-1.4495
-1.44053
-1.43582
-1.4346
-1.43498
-1.43834
-1.44367
-1.44864
-1.45255
-1.45708
-1.46286
-1.46931
-1.47595
-1.48238
-1.48812
-1.49267
-1.49536
-1.4969
-27.4587
-27.5437
-27.6918
-27.8479
-27.8905
-27.5881
-26.5709
-24.4724
-21.4676
-18.7122
-16.291
-14.0031
-12.1981
-10.6791
-9.20678
-8.00503
-6.93284
-5.89027
-5.21776
-4.86674
-4.59311
-4.26779
-4.00895
-3.78013
-3.53098
-3.35301
-3.21731
-3.08323
-3.00753
-2.95125
-2.83297
-2.63419
-2.4566
-2.29886
-2.137
-2.01213
-1.90461
-1.79029
-1.69738
-1.61237
-1.52537
-1.47514
-1.45826
-1.44976
-1.43606
-1.4278
-1.42222
-1.41477
-1.41275
-1.41448
-1.4167
-1.42259
-1.43076
-1.43768
-1.44235
-1.44783
-1.45491
-1.46269
-1.47052
-1.47808
-1.48486
-1.49012
-1.49315
-1.49482
-27.8296
-27.9507
-28.1752
-28.455
-28.6697
-28.5584
-27.6403
-25.3286
-21.7314
-18.7223
-16.2007
-13.701
-11.8912
-10.4106
-8.84678
-7.66571
-6.6012
-5.43831
-4.78943
-4.5563
-4.36651
-4.03636
-3.80983
-3.61365
-3.35115
-3.19601
-3.08886
-2.95565
-2.91265
-2.90201
-2.79893
-2.56864
-2.38799
-2.23632
-2.06265
-1.94571
-1.84848
-1.72799
-1.64056
-1.55902
-1.46069
-1.41426
-1.41127
-1.41337
-1.4013
-1.39754
-1.3964
-1.38929
-1.3901
-1.39515
-1.39866
-1.40718
-1.41858
-1.42754
-1.43245
-1.43875
-1.44718
-1.45635
-1.46536
-1.47405
-1.48199
-1.48796
-1.49128
-1.49305
-28.1678
-28.3256
-28.63
-29.0446
-29.46
-29.5976
-28.8547
-26.3238
-21.9037
-18.6649
-16.1109
-13.3174
-11.5523
-10.1649
-8.44999
-7.32506
-6.29717
-4.93552
-4.32262
-4.25329
-4.1689
-3.80087
-3.61522
-3.46344
-3.16447
-3.03924
-2.96953
-2.82128
-2.81749
-2.86759
-2.78381
-2.4992
-2.3184
-2.17948
-1.98376
-1.87948
-1.79796
-1.66388
-1.5854
-1.51027
-1.3917
-1.35007
-1.3656
-1.38049
-1.3669
-1.36824
-1.37251
-1.36384
-1.36786
-1.37686
-1.38071
-1.39205
-1.40724
-1.41838
-1.42277
-1.42975
-1.43967
-1.45029
-1.46045
-1.47029
-1.47953
-1.48619
-1.48975
-1.49155
-28.4714
-28.6656
-29.0512
-29.6086
-30.2512
-30.7026
-30.2411
-27.5125
-21.9211
-18.5241
-16.0542
-12.8215
-11.1806
-9.97045
-7.99665
-6.98695
-6.04781
-4.36078
-3.80784
-3.96523
-4.01534
-3.55289
-3.42484
-3.33814
-2.9642
-2.88232
-2.86516
-2.6747
-2.71975
-2.85149
-2.79451
-2.41985
-2.24659
-2.13219
-1.89688
-1.81328
-1.75619
-1.59562
-1.53222
-1.46905
-1.31606
-1.28151
-1.32198
-1.35261
-1.33213
-1.33984
-1.35127
-1.33789
-1.34596
-1.36
-1.36259
-1.37708
-1.39689
-1.41047
-1.41318
-1.42078
-1.43237
-1.44455
-1.4558
-1.46672
-1.47753
-1.48482
-1.48855
-1.49032
-28.7393
-28.9686
-29.4344
-30.1383
-31.0302
-31.8649
-31.8279
-28.9775
-21.687
-18.2827
-16.0866
-12.165
-10.7755
-9.87145
-7.45278
-6.65538
-5.89457
-3.68115
-3.23385
-3.70189
-3.92709
-3.27756
-3.23804
-3.25111
-2.73928
-2.72481
-2.7851
-2.50757
-2.61635
-2.85777
-2.84114
-2.32098
-2.17117
-2.10075
-1.79642
-1.74691
-1.72806
-1.51923
-1.48133
-1.43988
-1.23014
-1.20732
-1.28135
-1.3318
-1.29566
-1.31226
-1.33379
-1.31061
-1.32433
-1.34517
-1.34389
-1.36216
-1.38769
-1.40415
-1.40343
-1.41175
-1.42532
-1.43915
-1.45138
-1.4633
-1.47605
-1.48387
-1.48766
-1.48933
-28.9714
-29.2335
-29.7757
-30.6251
-31.7815
-33.0688
-33.6417
-30.8437
-21.0569
-17.9248
-16.2973
-11.2719
-10.3368
-9.93486
-6.76309
-6.33435
-5.89968
-2.84617
-2.58862
-3.4754
-3.93423
-2.95054
-3.05386
-3.22274
-2.47216
-2.56629
-2.7438
-2.3073
-2.50356
-2.89091
-2.93848
-2.18774
-2.09069
-2.0951
-1.6737
-1.6802
-1.72102
-1.4283
-1.43302
-1.42957
-1.12838
-1.12618
-1.24495
-1.32096
-1.25527
-1.28535
-1.32175
-1.28065
-1.30289
-1.3333
-1.32394
-1.34713
-1.37983
-1.3999
-1.39314
-1.40256
-1.41853
-1.43415
-1.4472
-1.45992
-1.47517
-1.48335
-1.48705
-1.48854
-29.168
-29.4598
-30.0725
-31.0613
-32.4878
-34.2897
-35.7013
-33.2979
-19.8176
-17.4375
-16.823
-10.0263
-9.86577
-10.2602
-5.84113
-6.02784
-6.15488
-1.77987
-1.86136
-3.29977
-4.07917
-2.53393
-2.87143
-3.28353
-2.13592
-2.40666
-2.76299
-2.0552
-2.37735
-2.95529
-3.10805
-1.99783
-2.00396
-2.1304
-1.51539
-1.6131
-1.74617
-1.3129
-1.38761
-1.44819
-1.00242
-1.03695
-1.21423
-1.32416
-1.20749
-1.25902
-1.31765
-1.24595
-1.2816
-1.32575
-1.30175
-1.33185
-1.37352
-1.39842
-1.38176
-1.39314
-1.41207
-1.4296
-1.44324
-1.45642
-1.47504
-1.48326
-1.4867
-1.48794
-29.3303
-29.6478
-30.3231
-31.4399
-33.1305
-35.4927
-38.0077
-36.6151
-17.661
-16.8158
-17.866
-8.25405
-9.36625
-10.9923
-4.55645
-5.73989
-6.79279
-0.369842
-1.04619
-3.18965
-4.42139
-1.97086
-2.69038
-3.47814
-1.69026
-2.24643
-2.87442
-1.72395
-2.23416
-3.05432
-3.38087
-1.71855
-1.9104
-2.229
-1.30164
-1.5458
-1.8198
-1.15812
-1.34543
-1.51031
-0.83991
-0.939045
-1.19077
-1.34709
-1.1471
-1.23322
-1.32515
-1.20337
-1.2605
-1.32451
-1.27579
-1.31624
-1.36897
-1.40066
-1.36843
-1.38348
-1.40603
-1.42561
-1.43952
-1.45261
-1.47585
-1.48361
-1.48657
-1.4875
-29.4597
-29.7988
-30.5272
-31.7558
-33.6913
-36.6318
-40.5298
-41.1942
-14.1485
-16.0679
-19.7164
-5.70049
-8.84682
-12.3376
-2.71803
-5.47496
-8.00126
1.54721
-0.147998
-3.15768
-5.04368
-1.17874
-2.5117
-3.87045
-1.07645
-2.08735
-3.12334
-1.27419
-2.07223
-3.18888
-3.80112
-1.30307
-1.81069
-2.42302
-1.00345
-1.47903
-1.96512
-0.942165
-1.3069
-1.63662
-0.622875
-0.833094
-1.17602
-1.39759
-1.06648
-1.2081
-1.34946
-1.14836
-1.23979
-1.33238
-1.24386
-1.30035
-1.36635
-1.40797
-1.35193
-1.37368
-1.40053
-1.42227
-1.43608
-1.44817
-1.47792
-1.48437
-1.48663
-1.4872
-29.5585
-29.9145
-30.6853
-32.0059
-34.1537
-37.6519
-43.1828
-47.6033
-8.66789
-15.2242
-22.779
-2.0015
-8.3242
-14.5843
-0.053673
-5.23849
-10.0413
4.20416
0.808742
-3.20999
-6.06025
-0.0406798
-2.33882
-4.54977
-0.210862
-1.93327
-3.57268
-0.650185
-1.89377
-3.35494
-4.43093
-0.685653
-1.70752
-2.75738
-0.57952
-1.41437
-2.21464
-0.634068
-1.27265
-1.85584
-0.325697
-0.721927
-1.17091
-1.48643
-0.954828
-1.18412
-1.39786
-1.07438
-1.21994
-1.35325
-1.20276
-1.28451
-1.36572
-1.42218
-1.33052
-1.36399
-1.39573
-1.41973
-1.433
-1.44272
-1.48166
-1.48552
-1.48685
-1.48706
-29.6288
-29.9972
-30.7993
-32.1893
-34.505
-38.4917
-45.7996
-56.6376
-0.378365
-14.3481
-27.6056
3.35152
-7.82782
-18.1257
3.81497
-5.03794
-13.2685
7.92703
1.7674
-3.33923
-7.62696
1.60479
-2.17917
-5.6383
1.02293
-1.79133
-4.30807
0.225671
-1.70814
-3.54015
-5.35638
0.224141
-1.60684
-3.2934
0.0276739
-1.35482
-2.61284
-0.190831
-1.24366
-2.20717
0.0875029
-0.61194
-1.17513
-1.62825
-0.79718
-1.1623
-1.48025
-0.972327
-1.20186
-1.39235
-1.14803
-1.26951
-1.36692
-1.44583
-1.30182
-1.35495
-1.39182
-1.41816
-1.43043
-1.4357
-1.48773
-1.48697
-1.48723
-1.48709
-29.6732
-30.0495
-30.8718
-32.3075
-34.7379
-39.0911
-48.092
-69.3896
11.8538
-13.5513
-34.9312
11.0531
-7.40622
-23.4885
9.4017
-4.88429
-18.1585
13.1638
2.62214
-3.51437
-9.95414
3.97597
-2.0462
-7.29966
2.78345
-1.67366
-5.44355
1.45961
-1.53632
-3.719
-6.69487
1.54838
-1.51922
-4.113
0.896527
-1.30548
-3.21929
0.445898
-1.22149
-2.74298
0.66603
-0.514957
-1.1862
-1.84277
-0.573275
-1.14446
-1.60985
-0.829729
-1.18714
-1.45662
-1.07348
-1.25682
-1.36947
-1.48235
-1.26253
-1.34754
-1.38898
-1.41777
-1.42867
-1.4264
-1.49699
-1.48863
-1.48783
-1.48736
-29.6943
-30.0744
-30.9065
-32.3644
-34.852
-39.403
-49.6026
-87.3332
29.5316
-13.0116
-45.7139
22.031
-7.13514
-31.363
17.3892
-4.79401
-25.3356
20.5186
3.19577
-3.66675
-13.322
7.36212
-1.96181
-9.74845
5.28218
-1.59939
-7.12795
3.19458
-1.41682
-3.84653
-8.60396
3.44892
-1.46171
-5.32316
2.13168
-1.27436
-4.11211
1.35373
-1.20846
-3.53189
1.47654
-0.450446
-1.19782
-2.15595
-0.256015
-1.1333
-1.80367
-0.629648
-1.17797
-1.55472
-0.970486
-1.24863
-1.37196
-1.53598
-1.20792
-1.34289
-1.38703
-1.41845
-1.42774
-1.41349
-1.51027
-1.4899
-1.48836
-1.48755
)
;

boundaryField
{
    left
    {
        type            calculated;
        value           nonuniform List<scalar> 
32
(
-20.1564
-20.2347
-20.3835
-20.5945
-20.8604
-21.1745
-21.5309
-21.9236
-22.3473
-22.7962
-23.2649
-23.7478
-24.2392
-24.7335
-25.225
-25.7083
-26.178
-26.6292
-27.0574
-27.4587
-27.8296
-28.1678
-28.4714
-28.7393
-28.9714
-29.168
-29.3303
-29.4597
-29.5585
-29.6288
-29.6732
-29.6943
)
;
    }
    right
    {
        type            calculated;
        value           nonuniform List<scalar> 
32
(
-1.55971
-1.55863
-1.55662
-1.55384
-1.55044
-1.54656
-1.54235
-1.53793
-1.5334
-1.52886
-1.52439
-1.52006
-1.51591
-1.51201
-1.50837
-1.50503
-1.502
-1.49929
-1.4969
-1.49482
-1.49305
-1.49155
-1.49032
-1.48933
-1.48854
-1.48794
-1.4875
-1.4872
-1.48706
-1.48709
-1.48736
-1.48755
)
;
    }
    interface
    {
        type            calculated;
        value           nonuniform List<scalar> 
64
(
-29.6994
-30.0804
-30.9148
-32.3781
-34.8797
-39.4824
-50.0929
-97.8138
39.9454
-12.8331
-52.1046
28.4713
-7.04869
-36.0258
22.0801
-4.76719
-29.5843
24.8121
3.38493
-3.72581
-15.306
9.35
-1.93513
-11.2
6.74619
-1.57601
-8.12836
4.20776
-1.37627
-3.8904
-9.72366
4.56625
-1.44307
-6.04096
2.85574
-1.26455
-4.64114
1.88645
-1.20458
-3.99932
1.94935
-0.429291
-1.20268
-2.3409
-0.0701728
-1.12979
-1.91901
-0.512794
-1.17508
-1.61341
-0.91061
-1.24597
-1.37294
-1.56763
-1.17608
-1.34139
-1.3862
-1.41899
-1.42745
-1.40589
-1.51799
-1.4903
-1.48853
-1.48754
)
;
    }
    bottom
    {
        type            calculated;
        value           nonuniform List<scalar> 
64
(
-20.1359
-20.0393
-19.8472
-19.5618
-19.1867
-18.727
-18.1895
-17.5825
-16.9161
-16.2013
-15.45
-14.6744
-13.8863
-13.0968
-12.3159
-11.5524
-10.8135
-10.1048
-9.43043
-8.79324
-8.19473
-7.63537
-7.11476
-6.63181
-6.18495
-5.77226
-5.39164
-5.04087
-4.71775
-4.42016
-4.14608
-3.89368
-3.6613
-3.44747
-3.25088
-3.07038
-2.90494
-2.75364
-2.61562
-2.4901
-2.37629
-2.27348
-2.18092
-2.09792
-2.02377
-1.95778
-1.89928
-1.84762
-1.8022
-1.76244
-1.72777
-1.6977
-1.67175
-1.64948
-1.6305
-1.61445
-1.60099
-1.58985
-1.58078
-1.57355
-1.56798
-1.56393
-1.56129
-1.55999
)
;
    }
    defaultFaces
    {
        type            empty;
    }
}


// ************************************************************************* //
