/*--------------------------------*- C++ -*----------------------------------*\
| =========                 |                                                 |
| \\      /  F ield         | OpenFOAM: The Open Source CFD Toolbox           |
|  \\    /   O peration     | Version:  5.x                                   |
|   \\  /    A nd           | Web:      www.OpenFOAM.org                      |
|    \\/     M anipulation  |                                                 |
\*---------------------------------------------------------------------------*/
FoamFile
{
    version     2.0;
    format      ascii;
    class       volScalarField;
    location    "9.7";
    object      T;
}
// * * * * * * * * * * * * * * * * * * * * * * * * * * * * * * * * * * * * * //

dimensions      [0 0 0 1 0 0 0];

internalField   nonuniform List<scalar> 
2048
(
9.85534
9.85603
9.85741
9.85946
9.86216
9.86546
9.86932
9.87368
9.87847
9.88361
9.889
9.89458
9.90024
9.90591
9.91152
9.917
9.92231
9.9274
9.93225
9.93683
9.94113
9.94515
9.94889
9.95236
9.95557
9.95853
9.96127
9.96379
9.96611
9.96824
9.97021
9.97203
9.9737
9.97523
9.97664
9.97794
9.97913
9.98022
9.98121
9.98211
9.98293
9.98367
9.98433
9.98493
9.98546
9.98593
9.98636
9.98673
9.98705
9.98734
9.98759
9.9878
9.98799
9.98815
9.98829
9.9884
9.9885
9.98858
9.98864
9.9887
9.98874
9.98876
9.98878
9.98879
9.57177
9.57382
9.57792
9.584
9.592
9.6018
9.61327
9.62622
9.64044
9.65569
9.67172
9.68826
9.70507
9.72189
9.73853
9.75479
9.77052
9.78559
9.79993
9.81347
9.82619
9.83807
9.84912
9.85936
9.86884
9.8776
9.88567
9.8931
9.89995
9.90626
9.91207
9.91742
9.92235
9.92688
9.93105
9.93488
9.93839
9.9416
9.94452
9.94718
9.9496
9.95178
9.95374
9.9555
9.95707
9.95846
9.9597
9.9608
9.96176
9.9626
9.96333
9.96397
9.96452
9.96499
9.96539
9.96573
9.96601
9.96625
9.96644
9.96659
9.96671
9.96679
9.96685
9.96688
9.29904
9.30242
9.30914
9.31914
9.33229
9.34842
9.36729
9.38861
9.41204
9.43715
9.46355
9.49077
9.51841
9.54607
9.57339
9.60007
9.62585
9.65054
9.674
9.69614
9.71691
9.73629
9.75432
9.77102
9.78646
9.80072
9.81385
9.82596
9.8371
9.84737
9.85682
9.86553
9.87355
9.88092
9.88771
9.89394
9.89965
9.90488
9.90964
9.91397
9.9179
9.92144
9.92463
9.92749
9.93005
9.93232
9.93433
9.9361
9.93766
9.93902
9.94021
9.94124
9.94213
9.94289
9.94354
9.94409
9.94455
9.94492
9.94523
9.94548
9.94567
9.94581
9.94589
9.94594
9.0359
9.04057
9.04986
9.06368
9.08188
9.10421
9.13038
9.15995
9.19245
9.2273
9.2639
9.30164
9.33991
9.37817
9.41592
9.45273
9.48826
9.52225
9.5545
9.58489
9.61336
9.63992
9.66458
9.68741
9.70851
9.72797
9.7459
9.76241
9.77761
9.79161
9.8045
9.81638
9.82732
9.83739
9.84665
9.85515
9.86295
9.87008
9.87658
9.8825
9.88785
9.89269
9.89703
9.90093
9.9044
9.90749
9.91022
9.91263
9.91475
9.9166
9.91821
9.91961
9.92081
9.92184
9.92272
9.92346
9.92407
9.92458
9.925
9.92533
9.92559
9.92577
9.92589
9.92595
8.78132
8.78725
8.79905
8.81663
8.83979
8.86827
8.90166
8.93945
8.98097
9.02551
9.07227
9.12043
9.16923
9.21794
9.26593
9.31265
9.35767
9.40066
9.44139
9.47971
9.51557
9.54895
9.57992
9.60856
9.635
9.65937
9.68181
9.70247
9.72148
9.73899
9.75512
9.76997
9.78366
9.79627
9.80786
9.81851
9.82828
9.83721
9.84535
9.85275
9.85945
9.86549
9.87093
9.87579
9.88013
9.88398
9.88738
9.89038
9.89301
9.89531
9.89731
9.89904
9.90053
9.90181
9.90289
9.9038
9.90457
9.9052
9.90571
9.90611
9.90643
9.90665
9.9068
9.90687
8.53445
8.54161
8.55587
8.57714
8.60523
8.63981
8.68042
8.72641
8.77701
8.83127
8.8882
8.94679
9.00606
9.06514
9.12323
9.17968
9.23397
9.28571
9.33463
9.38057
9.42347
9.46336
9.5003
9.53444
9.56591
9.59489
9.62156
9.6461
9.66868
9.68947
9.70862
9.72627
9.74254
9.75753
9.77132
9.78399
9.7956
9.80622
9.81591
9.8247
9.83267
9.83985
9.84629
9.85206
9.85719
9.86175
9.86577
9.86932
9.87242
9.87513
9.87748
9.87952
9.88127
9.88276
9.88403
9.8851
9.88599
9.88673
9.88732
9.88779
9.88816
9.88842
9.88859
9.88867
8.29459
8.30295
8.31962
8.34453
8.37748
8.41815
8.46599
8.52027
8.58002
8.6441
8.7113
8.78037
8.85014
8.91954
8.98763
9.05366
9.11702
9.17727
9.2341
9.28736
9.337
9.38306
9.42566
9.46496
9.50115
9.53445
9.56507
9.59323
9.61913
9.64298
9.66496
9.68522
9.7039
9.72111
9.73696
9.75153
9.76488
9.77709
9.78822
9.79833
9.80747
9.81571
9.8231
9.8297
9.83557
9.84077
9.84537
9.8494
9.85294
9.85602
9.85869
9.861
9.86298
9.86467
9.8661
9.86731
9.86831
9.86914
9.8698
9.87033
9.87074
9.87103
9.87122
9.87131
8.06118
8.0707
8.08972
8.1182
8.15597
8.20271
8.25784
8.3205
8.38955
8.46362
8.54123
8.6209
8.70122
8.78093
8.85896
8.93445
9.0067
9.07523
9.13971
9.19999
9.25604
9.30795
9.35588
9.40002
9.44063
9.47795
9.51224
9.54376
9.57275
9.59944
9.62403
9.64672
9.66766
9.68696
9.70473
9.72107
9.73606
9.74976
9.76224
9.77358
9.78382
9.79304
9.8013
9.80867
9.81522
9.82101
9.82612
9.83061
9.83453
9.83794
9.8409
9.84345
9.84564
9.8475
9.84907
9.8504
9.85149
9.8524
9.85312
9.8537
9.85414
9.85446
9.85466
9.85476
7.83377
7.84441
7.8657
7.89765
7.94018
7.99298
8.05545
8.12664
8.20519
8.28946
8.3777
8.46812
8.55908
8.64913
8.73705
8.82188
8.90285
8.97943
9.0513
9.1183
9.18046
9.23789
9.29082
9.33949
9.38421
9.42527
9.46295
9.49757
9.52941
9.55872
9.58574
9.61069
9.63372
9.65497
9.67455
9.69255
9.70906
9.72416
9.73791
9.75039
9.76166
9.77178
9.78085
9.78892
9.79609
9.80242
9.808
9.81288
9.81715
9.82086
9.82407
9.82683
9.82919
9.8312
9.8329
9.83432
9.8355
9.83646
9.83724
9.83785
9.83832
9.83866
9.83887
9.83898
7.612
7.6237
7.64716
7.68248
7.72967
7.78851
7.8584
7.93828
8.02657
8.12132
8.22043
8.3218
8.42352
8.52395
8.62173
8.71579
8.80531
8.88974
8.96872
9.04215
9.11008
9.17271
9.23032
9.28321
9.33174
9.37624
9.41706
9.45453
9.48898
9.5207
9.54997
9.57701
9.60199
9.62505
9.64632
9.66588
9.68382
9.70023
9.71516
9.7287
9.74092
9.75189
9.76169
9.77041
9.77813
9.78495
9.79094
9.79619
9.80076
9.80473
9.80816
9.8111
9.81362
9.81575
9.81755
9.81905
9.82029
9.82131
9.82212
9.82276
9.82325
9.8236
9.82382
9.82393
7.39561
7.40829
7.43379
7.47233
7.52406
7.58889
7.66628
7.75505
7.85337
7.95893
8.0692
8.18175
8.29437
8.40522
8.51283
8.61602
8.71393
8.80598
8.89182
8.97136
9.04475
9.11225
9.17421
9.23101
9.28306
9.33073
9.37442
9.4145
9.45133
9.48526
9.51659
9.54556
9.57235
9.59711
9.61996
9.64098
9.66026
9.67788
9.69392
9.70846
9.72156
9.7333
9.74378
9.75308
9.7613
9.76855
9.77491
9.78047
9.78531
9.7895
9.79312
9.79622
9.79886
9.8011
9.80298
9.80455
9.80584
9.80689
9.80773
9.80839
9.80889
9.80924
9.80947
9.80959
7.18439
7.19797
7.22535
7.26691
7.32301
7.39375
7.4787
7.57659
7.6853
7.80204
7.92382
8.04779
8.17146
8.29279
8.41018
8.52239
8.62853
8.72798
8.8204
8.90576
8.98427
9.0563
9.12229
9.1827
9.23798
9.28855
9.33486
9.37731
9.41631
9.45225
9.48547
9.51622
9.5447
9.57104
9.59536
9.61775
9.63828
9.65705
9.67413
9.68958
9.7035
9.71595
9.72704
9.73687
9.74554
9.75317
9.75985
9.76569
9.77076
9.77514
9.77892
9.78214
9.78489
9.78721
9.78915
9.79077
9.7921
9.79318
9.79403
9.7947
9.7952
9.79556
9.7958
9.79591
6.97821
6.99258
7.02164
7.06597
7.12622
7.20276
7.29533
7.4026
7.5221
7.65046
7.78412
7.91979
8.05465
8.1865
8.31362
8.43474
8.54893
8.65556
8.75429
8.84514
8.92843
9.00467
9.07438
9.13809
9.19632
9.24954
9.29822
9.34281
9.38377
9.42153
9.45647
9.48886
9.51891
9.54674
9.57245
9.59611
9.61782
9.63766
9.65569
9.67201
9.68668
9.69979
9.71143
9.72172
9.73079
9.73875
9.74571
9.75179
9.75705
9.7616
9.7655
9.76884
9.77166
9.77405
9.77604
9.77769
9.77904
9.78013
9.781
9.78166
9.78217
9.78252
9.78275
9.78286
6.77699
6.79201
6.82252
6.86932
6.93343
7.01559
7.11581
7.23277
7.36353
7.504
7.64996
7.79761
7.94381
8.08618
8.22298
8.35289
8.47496
8.58855
8.6933
8.7893
8.87703
8.95714
9.03025
9.09699
9.15791
9.21352
9.26433
9.31085
9.35356
9.39295
9.42945
9.46337
9.49489
9.5241
9.55111
9.57597
9.59878
9.61962
9.63856
9.65568
9.67105
9.68475
9.69688
9.70759
9.717
9.72524
9.73245
9.73872
9.74415
9.74883
9.75284
9.75625
9.75914
9.76157
9.76359
9.76527
9.76663
9.76772
9.76858
9.76925
9.76974
9.77009
9.77032
9.77042
6.58068
6.59621
6.62788
6.67681
6.7444
6.83193
6.93982
7.06679
7.20937
7.36253
7.52123
7.68116
7.83881
7.9917
8.13809
8.27664
8.40641
8.52675
8.63724
8.73805
8.82986
8.91349
8.9897
9.05918
9.12255
9.18032
9.23305
9.28127
9.32553
9.36637
9.40429
9.43962
9.4725
9.50303
9.53126
9.55725
9.58108
9.60286
9.62264
9.64051
9.65653
9.67077
9.68334
9.6944
9.70411
9.7126
9.72001
9.72645
9.73202
9.7368
9.74089
9.74436
9.74729
9.74974
9.75179
9.75347
9.75483
9.75592
9.75677
9.75742
9.7579
9.75824
9.75845
9.75855
6.38929
6.40516
6.43768
6.48829
6.55893
6.65149
6.76702
6.90438
7.05946
7.22594
7.39785
7.57033
7.73952
7.90288
8.05876
8.2058
8.34309
8.46998
8.58592
8.69117
8.78668
8.87351
8.95252
9.02448
9.09005
9.14977
9.20419
9.25392
9.29953
9.34164
9.38084
9.41748
9.45166
9.48342
9.5128
9.53985
9.56465
9.5873
9.60787
9.62644
9.64306
9.6578
9.67076
9.68212
9.69207
9.70077
9.70835
9.71492
9.72059
9.72546
9.72961
9.73312
9.73607
9.73854
9.74058
9.74226
9.74362
9.74469
9.74552
9.74615
9.74661
9.74693
9.74714
9.74723
6.20283
6.21887
6.25189
6.30369
6.37682
6.47398
6.59705
6.74524
6.91364
7.09415
7.27973
7.46506
7.64583
7.81957
7.98481
8.14016
8.2848
8.41805
8.53916
8.64845
8.74726
8.83697
8.91849
8.99268
9.06024
9.12169
9.17761
9.22866
9.27542
9.31862
9.35897
9.39685
9.43225
9.46518
9.49566
9.52371
9.5494
9.57288
9.59418
9.61341
9.6306
9.64578
9.65907
9.67068
9.68084
9.6897
9.69741
9.70409
9.70985
9.71477
9.71896
9.72249
9.72544
9.72791
9.72995
9.73162
9.73295
9.734
9.73481
9.73541
9.73585
9.73615
9.73634
9.73643
6.02135
6.03737
6.07051
6.12295
6.19792
6.29911
6.42954
6.58907
6.7718
6.96713
7.16684
7.36529
7.55763
7.74158
7.91606
8.07951
8.2313
8.3708
8.49678
8.60968
8.71137
8.80364
8.88741
8.96358
9.03295
9.09594
9.15316
9.20535
9.25307
9.29718
9.33855
9.3776
9.41418
9.44822
9.47975
9.50873
9.53526
9.55951
9.58151
9.60135
9.61907
9.63466
9.64822
9.66003
9.67035
9.67934
9.68715
9.69392
9.69974
9.7047
9.7089
9.71243
9.71538
9.71783
9.71986
9.72151
9.72282
9.72383
9.72461
9.72518
9.72558
9.72586
9.72604
9.72612
5.84492
5.86071
5.89356
5.94605
6.0221
6.1266
6.2641
6.43553
6.63389
6.84486
7.0591
7.271
7.47481
7.66872
7.8523
8.02362
8.18237
8.32807
8.45863
8.57462
8.67875
8.77331
8.85905
8.93698
9.00801
9.07235
9.13069
9.18387
9.23236
9.27716
9.31943
9.35965
9.39736
9.43246
9.465
9.49485
9.52215
9.54714
9.56978
9.59019
9.60844
9.62439
9.63817
9.65012
9.66056
9.66965
9.67754
9.68437
9.69023
9.6952
9.69941
9.70293
9.70585
9.70828
9.71028
9.7119
9.71318
9.71416
9.71489
9.71542
9.71579
9.71604
9.7162
9.71627
5.67359
5.68895
5.72111
5.77298
5.84926
5.95618
6.10029
6.28426
6.49993
6.7274
6.95646
7.18216
7.39724
7.60075
7.79337
7.97226
8.13774
8.2897
8.42455
8.54305
8.64914
8.74577
8.83322
8.91268
8.98526
9.05078
9.11006
9.1641
9.21316
9.25844
9.3015
9.34289
9.38171
9.41781
9.45135
9.48199
9.51
9.53569
9.55893
9.57989
9.59866
9.61494
9.62885
9.64089
9.65143
9.66058
9.66852
9.6754
9.68128
9.68625
9.69045
9.69394
9.69682
9.69921
9.70119
9.70278
9.70401
9.70495
9.70563
9.70612
9.70645
9.70667
9.70681
9.70687
5.50742
5.52217
5.55322
5.6038
5.67935
5.78759
5.93761
6.13481
6.37003
6.61484
6.85882
7.09882
7.32482
7.53741
7.73908
7.92517
8.0971
8.2556
8.39443
8.51475
8.62225
8.72082
8.80974
8.89048
8.96458
9.03111
9.09112
9.14595
9.19537
9.24087
9.2846
9.32726
9.36715
9.40419
9.43872
9.4701
9.49873
9.52512
9.54891
9.57037
9.58969
9.60625
9.62023
9.63229
9.6429
9.65209
9.66005
9.66698
9.67286
9.67781
9.682
9.68544
9.68826
9.6906
9.69255
9.6941
9.69529
9.69618
9.69681
9.69725
9.69754
9.69772
9.69785
9.6979
5.34649
5.36043
5.38997
5.43857
5.51234
5.6206
5.77552
5.98663
6.2445
6.50731
6.76601
7.02106
7.25742
7.47834
7.68932
7.8821
8.0601
8.22571
8.36819
8.48945
8.59778
8.69829
8.78841
8.87018
8.94584
9.01319
9.07373
9.12934
9.17891
9.22432
9.26859
9.31269
9.35363
9.39152
9.42709
9.45911
9.48826
9.51537
9.53964
9.56156
9.58148
9.5983
9.61226
9.62427
9.63495
9.64415
9.6521
9.65907
9.66493
9.66985
9.67401
9.6774
9.68014
9.68243
9.68435
9.68586
9.687
9.68782
9.68841
9.68879
9.68903
9.68918
9.68928
9.68932
5.19082
5.2038
5.23144
5.27738
5.34828
5.45501
5.61341
5.83903
6.12382
6.40501
6.67771
6.94906
7.19491
7.42311
7.64404
7.84279
8.02628
8.20005
8.34578
8.4669
8.57537
8.67806
8.76908
8.85153
8.92898
8.99692
9.05773
9.11422
9.16369
9.20864
9.25331
9.29915
9.34108
9.37969
9.41641
9.44897
9.47851
9.50641
9.53108
9.55338
9.57403
9.59107
9.60488
9.61677
9.62753
9.63671
9.64462
9.65164
9.65748
9.66233
9.66647
9.66979
9.67244
9.67466
9.67656
9.67803
9.67911
9.67987
9.68039
9.68072
9.68091
9.68102
9.6811
9.68113
5.04047
5.05233
5.07773
5.12035
5.18725
5.2907
5.45062
5.69104
6.00885
6.30816
6.59343
6.88317
7.13718
7.37114
7.6033
7.80696
7.99506
8.17876
8.32719
8.44679
8.5546
8.66007
8.75157
8.83428
8.91395
8.98219
9.04292
9.10057
9.14966
9.19367
9.23856
9.28666
9.32947
9.36859
9.40669
9.43961
9.46938
9.49821
9.52316
9.54576
9.56733
9.58452
9.59804
9.60973
9.62063
9.62974
9.63757
9.64468
9.65046
9.65523
9.65936
9.66259
9.66513
9.66726
9.66915
9.67059
9.6716
9.6723
9.67276
9.67302
9.67315
9.67322
9.67328
9.6733
4.89543
4.90605
4.92891
4.96763
5.0294
5.1276
5.28643
5.54134
5.90085
6.21704
6.51236
6.82393
7.0841
7.32163
7.56736
7.77434
7.96567
8.16212
8.31246
8.42882
8.53499
8.64434
8.73577
8.8181
8.90079
8.9689
9.02909
9.08842
9.13678
9.17926
9.22411
9.27528
9.31876
9.35809
9.39794
9.431
9.46075
9.49078
9.51584
9.53858
9.56138
9.57865
9.5917
9.60308
9.61421
9.62322
9.63091
9.63817
9.64386
9.6485
9.65266
9.65579
9.65818
9.66022
9.66213
9.66352
9.66445
9.66508
9.66547
9.66568
9.66573
9.66576
9.66581
9.66582
4.7557
4.76499
4.78507
4.81936
4.87492
4.96577
5.12013
5.38808
5.80176
6.13192
6.43326
6.77225
7.03552
7.2735
7.53673
7.74466
7.93708
8.15068
8.30167
8.41261
8.51594
8.63102
8.72154
8.8026
8.88962
8.95695
9.01595
9.07786
9.12504
9.16526
9.20969
9.26514
9.30891
9.348
9.39022
9.42309
9.45246
9.48416
9.50907
9.53171
9.55622
9.57344
9.5858
9.59674
9.60828
9.6171
9.62458
9.63209
9.63765
9.64212
9.64634
9.64935
9.65156
9.6535
9.65546
9.6568
9.65765
9.6582
9.65853
9.65867
9.65865
9.65864
9.65867
9.65867
4.62127
4.62915
4.64626
4.6757
4.72408
4.8054
4.95107
5.22864
5.71439
6.05307
6.3543
6.72953
6.99131
7.22524
7.51234
7.71764
7.90786
8.14527
8.29489
8.39778
8.49667
8.62047
8.70876
8.78725
8.88068
8.94626
9.00313
9.06907
9.11442
9.15149
9.19492
9.25648
9.29991
9.33807
9.38367
9.41583
9.44434
9.47843
9.5028
9.52497
9.55194
9.56889
9.58028
9.59063
9.60285
9.61138
9.61852
9.62645
9.63181
9.63604
9.64042
9.64327
9.64526
9.64708
9.64914
9.65042
9.65118
9.65164
9.65191
9.65199
9.65187
9.65182
9.65183
9.65183
4.49207
4.49851
4.51252
4.53679
4.57718
4.64685
4.77873
5.05934
5.64274
5.98069
6.2728
6.69785
6.95128
7.17479
7.49563
7.69303
7.87611
8.14719
8.29218
8.38393
8.47624
8.61324
8.69733
8.77137
8.87438
8.93674
8.99013
9.06233
9.10494
9.13781
9.17933
9.24966
9.29173
9.32797
9.3785
9.40919
9.43612
9.47373
9.49697
9.51814
9.54865
9.56499
9.57509
9.58464
9.59796
9.60602
9.61267
9.62127
9.62632
9.63022
9.63487
9.63752
9.63926
9.64091
9.64316
9.64436
9.64502
9.64538
9.64559
9.64561
9.64538
9.6453
9.6453
9.6453
4.36805
4.37302
4.38387
4.40276
4.43453
4.49063
4.60293
4.87505
5.59236
5.91487
6.18505
6.68024
6.91521
7.11935
7.48877
7.67056
7.83923
8.15835
8.29352
8.37064
8.45339
8.61024
8.68715
8.75403
8.87136
8.9283
8.97631
9.05807
9.09659
9.12409
9.16229
9.24523
9.28433
9.31727
9.37501
9.40311
9.42747
9.4703
9.49156
9.51092
9.54656
9.56172
9.57017
9.57862
9.59368
9.60099
9.60692
9.61657
9.62115
9.62459
9.62972
9.63209
9.63352
9.63498
9.63752
9.63861
9.63914
9.63941
9.63956
9.63954
9.63916
9.63906
9.63906
9.63905
4.24911
4.25263
4.26031
4.27372
4.29648
4.33744
4.42402
4.66873
5.57088
5.85547
6.08591
6.68099
6.88281
7.05517
7.4949
7.64995
7.7938
8.18146
8.29874
8.35755
8.42654
8.61278
8.67809
8.73404
8.87255
8.92083
8.96081
9.05692
9.08936
9.11025
9.14298
9.24396
9.27768
9.30535
9.37369
9.39756
9.41794
9.46849
9.48651
9.50291
9.54594
9.55904
9.56547
9.57243
9.5901
9.59628
9.60118
9.61243
9.61629
9.6191
9.62498
9.62696
9.62803
9.62923
9.63222
9.63315
9.63354
9.63371
9.63381
9.63375
9.6332
9.63309
9.63308
9.63308
4.13516
4.13724
4.14179
4.14975
4.16333
4.18813
4.24316
4.43079
5.58851
5.80202
5.96857
6.70603
6.85364
6.97726
7.51835
7.63094
7.73528
8.22028
8.30733
8.34441
8.39361
8.62269
8.67001
8.70983
8.87927
8.91421
8.94253
9.05975
9.08315
9.09628
9.12029
9.2469
9.2717
9.29144
9.37517
9.39246
9.40697
9.46876
9.48178
9.49361
9.54721
9.5569
9.56094
9.56584
9.5874
9.59185
9.5953
9.60892
9.61171
9.61365
9.62069
9.62211
9.62277
9.62361
9.62728
9.62796
9.6282
9.62827
9.62832
9.62825
9.62747
9.62737
9.62737
9.62736
4.02608
4.02676
4.02826
4.03089
4.03538
4.04365
4.0627
4.14841
5.65876
5.75355
5.82409
6.76331
6.82711
6.87915
7.56501
7.61323
7.6578
8.2799
8.31838
8.33115
8.35195
8.64243
8.6627
8.67934
8.8933
8.90824
8.92001
9.06777
9.0778
9.08231
9.09279
9.25546
9.26626
9.27451
9.38034
9.38774
9.3938
9.47178
9.47733
9.48235
9.55089
9.55517
9.55656
9.5586
9.58577
9.58768
9.58909
9.60618
9.60737
9.60815
9.61691
9.61751
9.61774
9.61809
9.62272
9.62302
9.6231
9.62306
9.62307
9.62303
9.62195
9.6219
9.6219
9.6219
)
;

boundaryField
{
    left
    {
        type            zeroGradient;
    }
    right
    {
        type            zeroGradient;
    }
    interface
    {
        type            fixedValue;
        value           nonuniform List<scalar> 
64
(
3.97273
3.97273
3.97273
3.97273
3.97273
3.97273
3.97273
3.97273
5.7305
5.7305
5.7305
6.81445
6.81445
6.81445
7.60467
7.60467
7.60467
8.32446
8.32446
8.32446
8.32446
8.65923
8.65923
8.65923
8.90541
8.90541
8.90541
9.07532
9.07532
9.07532
9.07532
9.26366
9.26366
9.26366
9.38547
9.38547
9.38547
9.47516
9.47516
9.47516
9.5544
9.5544
9.5544
9.5544
9.58565
9.58565
9.58565
9.60526
9.60526
9.60526
9.61527
9.61527
9.61527
9.61527
9.62061
9.62061
9.62061
9.62051
9.62051
9.62051
9.61922
9.61922
9.61922
9.61922
)
;
    }
    bottom
    {
        type            fixedValue;
        value           uniform 10;
    }
    defaultFaces
    {
        type            empty;
    }
}


// ************************************************************************* //
