/*--------------------------------*- C++ -*----------------------------------*\
| =========                 |                                                 |
| \\      /  F ield         | OpenFOAM: The Open Source CFD Toolbox           |
|  \\    /   O peration     | Version:  5.x                                   |
|   \\  /    A nd           | Web:      www.OpenFOAM.org                      |
|    \\/     M anipulation  |                                                 |
\*---------------------------------------------------------------------------*/
FoamFile
{
    version     2.0;
    format      ascii;
    class       volScalarField;
    location    "5.3";
    object      gradTx;
}
// * * * * * * * * * * * * * * * * * * * * * * * * * * * * * * * * * * * * * //

dimensions      [0 -1 0 1 0 0 0];

internalField   nonuniform List<scalar> 
2048
(
0.0218853
0.0654089
0.108171
0.149596
0.189028
0.225745
0.25899
0.288042
0.312281
0.331265
0.344765
0.35279
0.355572
0.353529
0.347217
0.337286
0.324424
0.309323
0.29264
0.274977
0.25686
0.238731
0.220941
0.203762
0.187385
0.171939
0.157496
0.144085
0.131696
0.120294
0.109822
0.100213
0.0913912
0.0832845
0.0758243
0.0689497
0.0626086
0.0567575
0.0513605
0.0463887
0.041818
0.0376281
0.0338006
0.0303178
0.0271617
0.0243129
0.0217505
0.0194524
0.0173948
0.0155536
0.0139038
0.0124207
0.0110798
0.00985753
0.00873188
0.00768262
0.00669187
0.00574432
0.00482737
0.0039311
0.00304801
0.00217279
0.00130202
0.00043371
0.0649029
0.193997
0.320889
0.443893
0.561065
0.670233
0.769114
0.855508
0.927536
0.983843
1.02375
1.04728
1.05516
1.04866
1.02946
0.999533
0.960939
0.915749
0.865932
0.813281
0.759358
0.705471
0.652659
0.601711
0.553191
0.507469
0.464749
0.425108
0.388514
0.354853
0.323952
0.295604
0.269586
0.245677
0.223673
0.203393
0.184683
0.167415
0.151484
0.136806
0.123311
0.110939
0.0996385
0.0893575
0.0800431
0.0716384
0.0640819
0.0573073
0.0512449
0.0458222
0.0409655
0.0366012
0.0326565
0.0290615
0.0257505
0.0226634
0.0197471
0.0169563
0.0142538
0.0116103
0.00900398
0.00641945
0.00384686
0.00128132
0.106577
0.318627
0.527245
0.72973
0.922886
1.10307
1.26637
1.40903
1.52778
1.62029
1.68541
1.72324
1.73503
1.72298
1.68999
1.63937
1.57461
1.49916
1.4163
1.32901
1.23986
1.15099
1.06409
0.980423
0.900887
0.826055
0.756239
0.69154
0.631884
0.577067
0.526789
0.480691
0.438395
0.399529
0.363754
0.330771
0.300329
0.272223
0.246283
0.222375
0.20039
0.180235
0.161826
0.145084
0.129924
0.116253
0.10397
0.092968
0.0831305
0.0743387
0.0664712
0.0594065
0.0530247
0.0472105
0.0418552
0.0368596
0.0321363
0.0276109
0.0232229
0.018925
0.0146824
0.0104709
0.00627522
0.00208993
0.147188
0.44018
0.728819
1.00952
1.27786
1.52864
1.75617
1.95487
2.11991
2.24785
2.33703
2.38766
2.40166
2.38231
2.33384
2.26102
2.16883
2.06218
1.94567
1.82347
1.69915
1.57566
1.45529
1.33972
1.23013
1.12724
1.03145
0.942835
0.861268
0.786428
0.717867
0.655058
0.597451
0.544518
0.495779
0.450822
0.409306
0.37095
0.335532
0.302874
0.272834
0.245292
0.220143
0.197281
0.176593
0.157956
0.141229
0.126263
0.112898
0.100968
0.0903059
0.0807416
0.0721093
0.064248
0.0570064
0.0502462
0.0438462
0.037704
0.0317367
0.0258806
0.0200897
0.0143334
0.00859169
0.00286123
0.186894
0.559173
0.926602
1.28489
1.62842
1.95031
2.2428
2.49814
2.70962
2.87249
2.98454
3.04619
3.06023
3.03122
2.96493
2.86774
2.74623
2.60681
2.45549
2.29764
2.13785
1.9798
1.82635
1.67953
1.54073
1.41078
1.29008
1.17869
1.07637
0.982667
0.896954
0.818512
0.7466
0.680517
0.619641
0.563451
0.511519
0.463503
0.419134
0.378198
0.34053
0.305992
0.274463
0.24582
0.219926
0.196626
0.175745
0.15709
0.140456
0.125632
0.112403
0.100554
0.0898711
0.0801481
0.0711899
0.0628191
0.0548805
0.0472443
0.0398068
0.0324894
0.0252372
0.0180159
0.0108022
0.00359729
0.225733
0.675766
1.12103
1.55675
1.97618
2.37054
2.72962
3.04302
3.30166
3.49921
3.63287
3.70346
3.71489
3.67332
3.5863
3.462
3.30873
3.13452
2.9468
2.75222
2.55635
2.36362
2.17735
1.99986
1.83264
1.67657
1.53203
1.39899
1.27709
1.16571
1.06401
0.971047
0.885859
0.80756
0.735381
0.668695
0.607001
0.549903
0.497096
0.448341
0.403457
0.362299
0.324739
0.290646
0.259863
0.232207
0.207464
0.185399
0.165761
0.148293
0.132735
0.118824
0.1063
0.0949098
0.0844129
0.0745916
0.0652566
0.0562516
0.0474532
0.03877
0.0301405
0.0215301
0.012914
0.00430052
0.263627
0.789787
1.31199
1.82534
2.32199
2.79106
3.21933
3.59303
3.90012
4.13232
4.28622
4.36329
4.36897
4.3114
4.20021
4.0456
3.85772
3.64629
3.42027
3.1876
2.95489
2.72724
2.50837
2.30074
2.10589
1.92465
1.75732
1.60376
1.46347
1.33563
1.21914
1.1128
1.01539
0.925814
0.843159
0.766701
0.695878
0.630259
0.569507
0.513371
0.461663
0.414241
0.370985
0.331761
0.296401
0.264692
0.23638
0.211185
0.188811
0.168954
0.151307
0.135562
0.121411
0.108553
0.0966996
0.0855913
0.0750038
0.0647545
0.0547024
0.0447456
0.0348184
0.0248896
0.0149351
0.00497356
0.300385
0.900736
1.4989
2.09026
2.66603
3.21292
3.714
4.15121
4.50864
4.77561
4.94816
5.0288
5.02504
4.9475
4.80828
4.61978
4.3941
4.14274
3.87625
3.60398
3.33355
3.07073
2.81947
2.58229
2.36062
2.15516
1.9661
1.79317
1.63569
1.49263
1.3626
1.24405
1.13547
1.03555
0.94323
0.857698
0.778357
0.704748
0.636523
0.573419
0.515252
0.461898
0.413259
0.369211
0.329576
0.294112
0.262523
0.234479
0.209635
0.187641
0.168146
0.150795
0.135235
0.121112
0.108088
0.0958575
0.0841603
0.0727888
0.0615863
0.050443
0.0392919
0.0281095
0.0168743
0.00561913
0.335714
1.0078
1.68064
2.35048
3.00781
3.63659
4.2153
4.72027
5.13056
5.43253
5.6218
5.70254
5.68505
5.58308
5.41155
5.18529
4.9184
4.62417
4.31487
4.00133
3.6923
3.39409
3.11076
2.84467
2.59704
2.36836
2.15863
1.96746
1.79402
1.63701
1.4947
1.36515
1.24648
1.13714
1.03593
0.941983
0.854697
0.773603
0.698345
0.628659
0.56437
0.505388
0.451654
0.403071
0.359456
0.320533
0.285955
0.255339
0.228288
0.204406
0.183298
0.16457
0.147818
0.132635
0.118627
0.105438
0.0927716
0.0803957
0.0681406
0.0558916
0.0435836
0.0312053
0.0187403
0.0062399
0.369222
1.10989
1.85565
2.60438
3.34618
4.06199
4.72451
5.30273
5.7691
6.1063
6.30989
6.38655
6.35037
6.21899
6.01059
5.7425
5.43084
5.09065
4.73602
4.37949
4.031
3.6973
3.38234
3.08813
2.81547
2.56456
2.33524
2.12697
1.93878
1.76913
1.61587
1.47656
1.34888
1.231
1.12163
1.01989
0.925197
0.83709
0.755214
0.679302
0.609197
0.544856
0.486288
0.433442
0.386132
0.34404
0.30676
0.273844
0.244843
0.219314
0.196825
0.176942
0.159215
0.143178
0.128373
0.114388
0.100888
0.0876198
0.0744031
0.0611221
0.0477165
0.0341925
0.0205416
0.00683824
0.400431
1.20564
2.02192
2.84973
3.67938
4.4885
5.24263
5.90108
6.42749
6.80003
7.01482
7.08237
7.02182
6.85559
6.60552
6.29147
5.93142
5.54208
5.13946
4.73815
4.34943
3.98033
3.63438
3.31297
3.01631
2.74422
2.49634
2.27208
2.07037
1.88942
1.7266
1.57879
1.44317
1.31762
1.20077
1.0918
0.990181
0.895499
0.807393
0.725585
0.649933
0.580464
0.517292
0.460438
0.409713
0.36474
0.32504
0.290093
0.259388
0.232445
0.208796
0.187975
0.169488
0.152804
0.137388
0.122766
0.108563
0.0945075
0.0804127
0.0661657
0.0517135
0.0370861
0.0222857
0.00741606
0.428796
1.29345
2.17702
3.08373
4.00496
4.91496
5.77044
6.51793
7.10913
7.51676
7.73874
7.7911
7.69964
7.4927
7.19607
6.83199
6.42003
5.97827
5.52483
5.07687
4.6473
4.24315
3.86712
3.51962
3.20008
2.90783
2.64242
2.40323
2.18919
1.99833
1.82741
1.67245
1.52994
1.39751
1.27379
1.15808
1.04998
0.949134
0.855162
0.767764
0.686799
0.612386
0.544804
0.484181
0.430316
0.382752
0.340913
0.304195
0.272025
0.243886
0.219286
0.197735
0.178701
0.16158
0.14574
0.130635
0.115852
0.101106
0.0862081
0.0710534
0.0555969
0.0398995
0.0239787
0.00797459
0.453722
1.37158
2.31818
3.30301
4.31977
5.33962
6.30858
7.15614
7.81773
8.25958
8.48345
8.51332
8.38354
8.1297
7.78167
7.36369
6.8965
6.39901
5.89165
5.3951
4.92429
4.4858
4.08085
3.70859
3.36737
3.056
2.77401
2.52087
2.29565
2.09632
1.91889
1.75817
1.6098
1.47122
1.34115
1.21911
1.10493
0.998301
0.898813
0.806113
0.720028
0.6408
0.568962
0.504797
0.44807
0.398205
0.354508
0.316273
0.282863
0.253732
0.228374
0.206289
0.186919
0.169574
0.153499
0.138059
0.122811
0.107461
0.0918268
0.0758151
0.059388
0.0426445
0.0256247
0.00851411
0.474596
1.43817
2.44237
3.50367
4.61995
5.76011
6.85752
7.81903
8.55748
9.03156
9.25047
9.24911
9.07262
8.76549
8.36144
7.88606
7.3607
6.80415
6.23938
5.69215
5.18004
4.70835
4.27601
3.88052
3.51891
3.1894
2.89169
2.62548
2.39014
2.18383
2.00164
1.83665
1.68341
1.5393
1.4033
1.27525
1.15534
1.0433
0.938637
0.840915
0.749866
0.665884
0.589894
0.522408
0.463108
0.411237
0.365963
0.326457
0.292015
0.262079
0.236138
0.2137
0.194204
0.176858
0.160739
0.145104
0.129494
0.113618
0.0973038
0.0804798
0.0631071
0.0453306
0.027225
0.00903365
0.490813
1.49136
2.54636
3.68133
4.90083
6.17327
7.41761
8.51061
9.33327
9.83576
10.0409
9.99802
9.76537
9.39853
8.9343
8.39853
7.81267
7.19371
6.56737
5.96713
5.41416
4.91101
4.45311
4.03618
3.65553
3.30874
2.9961
2.71753
2.473
2.26129
2.07634
1.90866
1.75144
1.60232
1.46067
1.32684
1.20152
1.08443
0.974927
0.872472
0.776574
0.687805
0.607713
0.537131
0.475567
0.421993
0.375426
0.334886
0.2996
0.269028
0.242654
0.220026
0.200613
0.183505
0.167535
0.151834
0.135954
0.119617
0.102671
0.085075
0.0667741
0.0479643
0.0287772
0.00953066
0.501817
1.52936
2.6269
3.83123
5.15692
6.575
7.98899
9.23589
10.1508
10.6751
10.8554
10.7591
10.4595
10.0269
9.49905
8.90043
8.25271
7.56799
6.87485
6.21891
5.62627
5.09412
4.61278
4.17646
3.77818
3.4148
3.08788
2.79752
2.54448
2.32904
2.14369
1.97506
1.81459
1.66083
1.5137
1.37416
1.24373
1.12197
1.00797
0.901101
0.800429
0.706718
0.622504
0.54908
0.48559
0.430622
0.383048
0.341703
0.305738
0.274678
0.248
0.225312
0.206196
0.18959
0.173971
0.158311
0.142238
0.125496
0.107955
0.0896274
0.0704092
0.050549
0.0302743
0.0100006
0.507136
1.55057
2.68084
3.94832
5.38183
6.96005
8.57153
10.0012
11.0171
11.5522
11.6942
11.5307
11.1522
10.6485
10.0544
9.39102
8.68151
7.92772
7.16085
6.44601
5.81602
5.25823
4.75574
4.30239
3.88793
3.50834
3.16776
2.86594
2.60472
2.38733
2.20448
2.0368
1.87352
1.71534
1.56277
1.41744
1.28223
1.1562
1.03802
0.92714
0.821737
0.72275
0.634315
0.558357
0.493333
0.437274
0.38899
0.347058
0.310546
0.279133
0.252247
0.229594
0.210992
0.195195
0.180133
0.164593
0.148393
0.13129
0.113178
0.0941632
0.0740345
0.0530839
0.0317033
0.0104363
0.506413
1.55369
2.70529
4.02745
5.56832
7.32167
9.16456
10.8149
11.9406
12.4686
12.5567
12.3112
11.8392
11.2607
10.5992
9.86928
9.10033
8.27432
7.42407
6.6464
5.98322
5.40425
4.88274
4.41513
3.98599
3.59009
3.23648
2.92335
2.65366
2.43625
2.25962
2.09498
1.92889
1.76637
1.60826
1.45684
1.31722
1.18738
1.06531
0.95096
0.840846
0.735995
0.643144
0.565067
0.498965
0.442097
0.393414
0.351106
0.314135
0.282496
0.255471
0.232886
0.215022
0.200408
0.186119
0.17073
0.154456
0.137028
0.118351
0.0987091
0.0776764
0.0555637
0.0330434
0.0108279
0.499442
1.53783
2.69785
4.06356
5.70824
7.65129
9.76647
11.6879
12.9319
13.4244
13.4418
13.0986
12.5155
11.8612
11.1325
10.3337
9.51116
8.61015
7.66265
6.81733
6.12788
5.53349
4.99445
4.51599
4.07376
3.66062
3.29489
2.9704
2.69102
2.47566
2.31019
2.15088
1.98118
1.81437
1.65056
1.49238
1.34893
1.2158
1.09002
0.972974
0.858169
0.746493
0.648915
0.569318
0.50268
0.445228
0.396492
0.35401
0.316602
0.284877
0.25775
0.23518
0.218287
0.205334
0.192041
0.176758
0.160464
0.142739
0.123472
0.103294
0.0813695
0.0579766
0.0342643
0.0111616
0.486185
1.50257
2.65674
4.05195
5.79272
7.93801
10.3741
12.6347
14.004
14.4171
14.3478
13.8911
13.174
12.4477
11.654
10.7817
9.917
8.93899
7.87391
6.95502
6.2505
5.64793
5.09126
4.60645
4.15289
3.72024
3.34393
3.00793
2.71616
2.5051
2.35754
2.20605
2.03072
1.85978
1.69008
1.52394
1.37753
1.24177
1.1122
0.993657
0.874217
0.754201
0.65146
0.57124
0.504713
0.446781
0.398401
0.355949
0.318019
0.286392
0.259175
0.236432
0.220758
0.210098
0.198034
0.182687
0.166447
0.148452
0.128523
0.107952
0.0851611
0.0603027
0.0353242
0.0114202
0.466787
1.44802
2.581
3.98857
5.81236
8.16823
10.9817
13.6749
15.1738
15.4392
15.2727
14.6884
13.8052
13.0187
12.1647
11.209
10.3222
9.26661
8.05384
7.05428
6.35234
5.75044
5.17298
4.68824
4.2254
3.76874
3.38473
3.03715
2.72801
2.52365
2.40341
2.26243
2.07744
1.90303
1.72734
1.55115
1.40329
1.26567
1.13174
1.01357
0.889652
0.75896
0.65049
0.571008
0.505358
0.446821
0.399328
0.357117
0.318421
0.287173
0.259861
0.236559
0.222362
0.214865
0.20426
0.188492
0.172435
0.154206
0.133454
0.112723
0.0891189
0.0625098
0.0361676
0.011582
0.441575
1.37489
2.47063
3.8704
5.75759
8.32509
11.5794
14.8347
16.4631
16.4764
16.215
15.4921
14.3954
13.5741
12.6671
11.6081
10.7331
9.60163
8.19643
7.10805
6.43591
5.8451
5.23832
4.76343
4.29389
3.80508
3.41872
3.05977
2.72486
2.52976
2.45016
2.32242
2.12065
1.94457
1.76303
1.57325
1.4265
1.28801
1.14826
1.03341
0.90535
0.76044
0.645553
0.568874
0.50499
0.445332
0.399484
0.357749
0.317775
0.287374
0.259963
0.23542
0.222969
0.219853
0.210928
0.194081
0.178463
0.160052
0.138171
0.117664
0.0933399
0.064548
0.0367232
0.011622
0.411045
1.28444
2.32667
3.69574
5.61922
8.38824
12.1508
16.1495
17.9002
17.503
17.1744
16.308
14.9249
14.116
13.1668
11.9665
11.1584
9.95662
8.29274
7.10684
6.50554
5.93764
5.28412
4.83466
4.36181
3.82688
3.44777
3.07836
2.70417
2.52101
2.50095
2.38916
2.15873
1.98498
1.79821
1.58894
1.44765
1.30953
1.16091
1.05406
0.922491
0.758059
0.636002
0.565215
0.504104
0.442161
0.399112
0.358129
0.315945
0.287187
0.259697
0.2328
0.222369
0.225355
0.218305
0.199269
0.184583
0.166077
0.142515
0.122849
0.0979631
0.0663407
0.0369026
0.0115118
0.37584
1.17843
2.15123
3.46459
5.38916
8.33375
12.6699
17.6667
19.5228
18.4767
18.1541
17.1479
15.3649
14.6505
13.6736
12.2639
11.6107
10.3495
8.32957
7.0381
6.56827
6.03603
5.30432
4.9055
4.43395
3.82972
3.47443
3.0967
2.66231
2.49378
2.56013
2.4667
2.18858
2.02515
1.83446
1.59609
1.46751
1.33133
1.16818
1.07666
0.942682
0.750884
0.62094
0.560597
0.503352
0.436945
0.398516
0.358631
0.312643
0.28686
0.259374
0.22839
0.220244
0.231777
0.226746
0.203725
0.190879
0.172419
0.146226
0.12839
0.103185
0.0677707
0.0365999
0.011222
0.336712
1.05907
1.94749
3.1789
5.06133
8.1345
13.0965
19.4496
21.3813
19.3313
19.1632
18.0332
15.6726
15.1894
14.204
12.4683
12.1074
10.8054
8.28777
6.8855
6.63486
6.15122
5.28845
4.98093
4.51697
3.80611
3.50231
3.12022
2.59418
2.44291
2.63362
2.56039
2.20501
2.06644
1.87415
1.59133
1.48732
1.35503
1.16755
1.10276
0.968104
0.737484
0.599178
0.555854
0.503601
0.428998
0.398099
0.359756
0.307349
0.286726
0.259436
0.221757
0.21613
0.239668
0.23672
0.206909
0.197497
0.179295
0.148899
0.134444
0.10928
0.0686616
0.0356935
0.0107239
0.29449
0.92888
1.71952
2.84273
4.63273
7.76134
13.37
21.582
23.5435
19.9666
20.2213
18.9987
15.7854
15.7533
14.7838
12.5309
12.6734
11.359
8.13996
6.62823
6.72107
6.29803
5.21958
5.06819
4.62023
3.74418
3.53654
3.15663
2.4928
2.36121
2.72943
2.67725
2.19976
2.11112
1.92087
1.56949
1.50899
1.38302
1.15509
1.13448
1.00169
0.715745
0.569184
0.552182
0.506
0.417174
0.398419
0.362191
0.299214
0.28724
0.260501
0.212313
0.209377
0.249773
0.248855
0.20798
0.204678
0.187045
0.149923
0.141247
0.116624
0.0687509
0.0340506
0.00999344
0.250029
0.79057
1.47214
2.4623
4.10453
7.18523
13.4013
24.1738
26.1008
20.2353
21.3636
20.0981
15.612
16.3754
15.4516
12.3789
13.3435
12.0567
7.84767
6.24034
6.84912
6.49638
5.07177
5.17787
4.75682
3.62586
3.58451
3.21655
2.3488
2.23888
2.85821
2.82662
2.16035
2.16285
1.97978
1.52289
1.5355
1.41881
1.12485
1.17473
1.04735
0.682634
0.529047
0.55125
0.512064
0.399672
0.400268
0.366884
0.286925
0.289036
0.263416
0.199281
0.199088
0.263089
0.263992
0.205681
0.212815
0.196172
0.148395
0.149141
0.125723
0.0676541
0.0315371
0.00901473
0.204179
0.646907
1.21066
2.04577
3.48314
6.38082
13.0628
27.3675
29.1763
19.9269
22.6495
21.4097
15.0218
17.1067
16.2641
11.9072
14.1664
12.9601
7.35783
5.69025
7.04931
6.77272
4.80666
5.32538
4.94483
3.42463
3.65681
3.31426
2.14983
2.06295
3.03399
3.02077
2.0686
2.22732
2.05826
1.44036
1.57132
1.46736
1.06814
1.22755
1.1102
0.633901
0.476453
0.555322
0.52378
0.373801
0.404783
0.375136
0.268538
0.292993
0.269318
0.181647
0.184058
0.280922
0.283255
0.198189
0.222521
0.207413
0.14302
0.158624
0.137244
0.064819
0.0280328
0.00778484
0.157742
0.500578
0.940562
1.60291
2.78097
5.33181
12.1756
31.3452
32.9349
18.7468
24.1722
23.0446
13.831
18.0224
17.3008
10.967
15.2094
14.1491
6.59851
4.94046
7.36168
7.16188
4.36943
5.53293
5.20889
3.10263
3.76843
3.46846
1.8799
1.81651
3.27485
3.27585
1.89874
2.31321
2.16649
1.30609
1.62294
1.53562
0.972603
1.29852
1.19685
0.563726
0.408689
0.567379
0.54374
0.335683
0.413581
0.388716
0.241267
0.300334
0.279693
0.158125
0.162703
0.304963
0.308138
0.182934
0.234722
0.2218
0.131971
0.17041
0.15205
0.0594669
0.0234554
0.00631805
0.111447
0.354079
0.667264
1.14454
2.0167
4.03844
10.4939
36.3376
37.5958
16.2923
26.0713
25.1547
11.786
19.2303
18.6715
9.35281
16.5654
15.7248
5.47402
3.94768
7.83758
7.70931
3.68388
5.83198
5.58188
2.60731
3.94048
3.70304
1.51867
1.47796
3.60371
3.61296
1.61517
2.43329
2.31823
1.09809
1.69962
1.63306
0.821147
1.3953
1.31563
0.464298
0.322678
0.591235
0.575295
0.279899
0.42894
0.409987
0.201226
0.31274
0.296437
0.127102
0.132973
0.337355
0.340612
0.15638
0.250765
0.240753
0.112741
0.185505
0.171241
0.0505228
0.0177943
0.0046492
0.0659295
0.209622
0.395785
0.681806
1.21479
2.52753
7.68708
42.6316
43.4477
12.0236
28.5486
27.9423
8.54368
20.8802
20.5239
6.78724
18.3599
17.8134
3.85934
2.66347
8.54109
8.47374
2.64665
6.26622
6.10701
1.86734
4.20211
4.04772
1.04071
1.02028
4.04904
4.05941
1.16992
2.60582
2.53166
0.786577
1.81426
1.77231
0.590625
1.52827
1.47692
0.325342
0.21507
0.631636
0.622745
0.199078
0.454013
0.442062
0.143137
0.332503
0.321909
0.0866037
0.0922707
0.380764
0.383256
0.113761
0.272563
0.266169
0.0819426
0.20531
0.196185
0.036532
0.0111568
0.00283483
0.0217187
0.0690765
0.130539
0.225342
0.40387
0.865227
3.31919
50.5797
50.8663
5.23083
31.886
31.6704
3.64909
23.1754
23.0518
2.90305
20.7611
20.5687
1.59401
1.03553
9.54992
9.53036
1.12073
6.8951
6.83986
0.788056
4.59302
4.5386
0.414808
0.410244
4.64554
4.65028
0.49962
2.85617
2.83023
0.33193
1.98436
1.96991
0.250372
1.71133
1.69336
0.133596
0.0823842
0.694322
0.691568
0.0834284
0.493075
0.488955
0.0599833
0.362705
0.358969
0.0342532
0.037359
0.438441
0.43941
0.0487921
0.302748
0.300525
0.0351048
0.231732
0.228555
0.0155656
0.00382696
0.000950993
)
;

boundaryField
{
    left
    {
        type            calculated;
        value           uniform 0;
    }
    right
    {
        type            calculated;
        value           uniform 0;
    }
    interface
    {
        type            calculated;
        value           nonuniform List<scalar> 
64
(
0.0217187
0.0690765
0.130539
0.225342
0.40387
0.865227
3.31919
50.5797
50.8663
5.23083
31.886
31.6704
3.64909
23.1754
23.0518
2.90305
20.7611
20.5687
1.59401
1.03553
9.54992
9.53036
1.12073
6.8951
6.83986
0.788056
4.59302
4.5386
0.414808
0.410244
4.64554
4.65028
0.49962
2.85617
2.83023
0.33193
1.98436
1.96991
0.250372
1.71133
1.69336
0.133596
0.0823842
0.694322
0.691568
0.0834284
0.493075
0.488955
0.0599833
0.362705
0.358969
0.0342532
0.037359
0.438441
0.43941
0.0487921
0.302748
0.300525
0.0351048
0.231732
0.228555
0.0155656
0.00382696
0.000950993
)
;
    }
    bottom
    {
        type            calculated;
        value           nonuniform List<scalar> 
64
(
0.0218853
0.0654089
0.108171
0.149596
0.189028
0.225745
0.25899
0.288042
0.312281
0.331265
0.344765
0.35279
0.355572
0.353529
0.347217
0.337286
0.324424
0.309323
0.29264
0.274977
0.25686
0.238731
0.220941
0.203762
0.187385
0.171939
0.157496
0.144085
0.131696
0.120294
0.109822
0.100213
0.0913912
0.0832845
0.0758243
0.0689497
0.0626086
0.0567575
0.0513605
0.0463887
0.041818
0.0376281
0.0338006
0.0303178
0.0271617
0.0243129
0.0217505
0.0194524
0.0173948
0.0155536
0.0139038
0.0124207
0.0110798
0.00985753
0.00873188
0.00768262
0.00669187
0.00574432
0.00482737
0.0039311
0.00304801
0.00217279
0.00130202
0.00043371
)
;
    }
    defaultFaces
    {
        type            empty;
    }
}


// ************************************************************************* //
