/*--------------------------------*- C++ -*----------------------------------*\
| =========                 |                                                 |
| \\      /  F ield         | OpenFOAM: The Open Source CFD Toolbox           |
|  \\    /   O peration     | Version:  5.x                                   |
|   \\  /    A nd           | Web:      www.OpenFOAM.org                      |
|    \\/     M anipulation  |                                                 |
\*---------------------------------------------------------------------------*/
FoamFile
{
    version     2.0;
    format      ascii;
    class       volScalarField;
    location    "6";
    object      gradTx;
}
// * * * * * * * * * * * * * * * * * * * * * * * * * * * * * * * * * * * * * //

dimensions      [0 -1 0 1 0 0 0];

internalField   nonuniform List<scalar> 
2048
(
0.0220123
0.0657898
0.108805
0.150481
0.190162
0.227122
0.260603
0.289881
0.314334
0.333516
0.347198
0.355388
0.358315
0.356398
0.350196
0.340355
0.327567
0.312524
0.295886
0.278255
0.260158
0.242036
0.224244
0.20705
0.190646
0.17516
0.160665
0.147185
0.134714
0.123212
0.112624
0.102881
0.0939086
0.0856354
0.0779941
0.0709263
0.0643826
0.0583227
0.0527143
0.0475317
0.0427543
0.0383646
0.0343473
0.0306869
0.0273672
0.0243705
0.021677
0.0192652
0.0171119
0.0151927
0.0134825
0.0119559
0.0105878
0.00935377
0.0082307
0.00719726
0.00623438
0.00532548
0.00445666
0.00361661
0.00279645
0.00198942
0.00119058
0.000396345
0.0652783
0.195123
0.322764
0.446512
0.56442
0.67431
0.77389
0.860955
0.933615
0.990511
1.03095
1.05497
1.06328
1.05715
1.03828
1.00862
0.970242
0.925225
0.875539
0.822981
0.769117
0.715253
0.662431
0.61144
0.562842
0.517003
0.474127
0.434287
0.397448
0.363493
0.332249
0.303506
0.277042
0.252639
0.230097
0.209244
0.189932
0.172044
0.155486
0.140182
0.126072
0.113108
0.101245
0.0904368
0.0806376
0.0717948
0.0638501
0.0567393
0.0503936
0.0447407
0.0397058
0.0352136
0.0311893
0.0275603
0.0242578
0.0212185
0.0183856
0.0157102
0.0131511
0.010675
0.00825598
0.00587431
0.00351571
0.00117034
0.10719
0.320467
0.530311
0.734014
0.928376
1.10974
1.2742
1.41795
1.53774
1.63122
1.69723
1.73585
1.74834
1.7369
1.70444
1.65425
1.58984
1.51466
1.43202
1.34487
1.25582
1.16699
1.08007
0.996338
0.916675
0.841655
0.771587
0.706565
0.646511
0.591217
0.540378
0.493635
0.450608
0.410932
0.374274
0.340347
0.308916
0.279788
0.252815
0.227877
0.204881
0.183752
0.164418
0.146811
0.130855
0.116466
0.103548
0.0919955
0.0816956
0.0725285
0.0643714
0.0570998
0.0505904
0.0447231
0.0393845
0.0344698
0.029886
0.0255524
0.021402
0.0173811
0.0134479
0.00957143
0.00572914
0.00190709
0.148029
0.442706
0.733028
1.0154
1.28541
1.53782
1.76694
1.96716
2.13364
2.26291
2.35331
2.40503
2.41999
2.40148
2.35371
2.28149
2.18978
2.08349
1.96727
1.84527
1.72108
1.59764
1.47725
1.36159
1.25183
1.14869
1.05255
0.963501
0.881393
0.805903
0.736575
0.67288
0.614269
0.560217
0.510258
0.463994
0.421104
0.381332
0.34448
0.310394
0.278954
0.250064
0.223635
0.199578
0.177793
0.158166
0.140565
0.124843
0.110845
0.098402
0.0873452
0.0775011
0.068698
0.060769
0.0535556
0.0469122
0.0407095
0.0348366
0.0292017
0.0237322
0.0183725
0.0130825
0.00783262
0.00260729
0.187953
0.562354
0.931906
1.29231
1.63795
1.96191
2.25642
2.5137
2.72701
2.89157
3.00516
3.06819
3.08344
3.05548
2.99008
2.89362
2.7727
2.63374
2.48277
2.32517
2.16552
2.00755
1.85407
1.70714
1.56813
1.43787
1.31675
1.20481
1.10182
1.00731
0.920632
0.841075
0.767892
0.700389
0.63796
0.580102
0.526416
0.476591
0.430389
0.38763
0.348177
0.31192
0.278762
0.2486
0.221314
0.196761
0.174773
0.155165
0.137734
0.122267
0.108546
0.0963508
0.0854601
0.0756595
0.0667454
0.0585307
0.0508502
0.0435631
0.0365547
0.0297348
0.0230365
0.0164131
0.00983001
0.00327232
0.227
0.679573
1.12738
1.56565
1.98763
2.3845
2.74603
3.06177
3.32263
3.52222
3.65775
3.73
3.74288
3.70255
3.61657
3.49314
3.34056
3.16688
2.97957
2.78527
2.58957
2.39692
2.21063
2.033
1.86555
1.70912
1.56408
1.4304
1.30771
1.19537
1.09253
0.998231
0.911516
0.8315
0.757436
0.688722
0.624892
0.565591
0.510552
0.459578
0.412525
0.369281
0.329747
0.293816
0.261351
0.232183
0.20611
0.182901
0.16231
0.144077
0.127937
0.11362
0.100857
0.0893851
0.0789528
0.0693311
0.0603186
0.0517456
0.0434755
0.035403
0.0274521
0.0195726
0.0117271
0.00390412
0.26509
0.794188
1.31935
1.83566
2.33528
2.80729
3.23843
3.6149
3.9246
4.15919
4.31526
4.39426
4.40161
4.34547
4.23548
4.08185
3.89475
3.68391
3.45834
3.22599
2.99347
2.76591
2.54701
2.33924
2.14413
1.96249
1.7946
1.64032
1.49913
1.37019
1.25239
1.14451
1.04532
0.953733
0.868861
0.790012
0.716669
0.648446
0.585061
0.526309
0.472046
0.422171
0.376598
0.335221
0.297894
0.26442
0.23456
0.208039
0.184563
0.163826
0.145515
0.129312
0.114898
0.101959
0.0901963
0.0793358
0.0691392
0.0594087
0.0499874
0.0407573
0.0316359
0.0225731
0.013531
0.00450504
0.302033
0.905698
1.5072
2.10193
2.6811
3.23136
3.73576
4.17614
4.53656
4.80628
4.9813
5.06412
5.06225
4.98632
4.84843
4.66101
4.43619
4.18547
3.91946
3.64751
3.3773
3.11458
2.8633
2.62598
2.40402
2.19813
2.00846
1.83473
1.67626
1.53198
1.40048
1.28019
1.1696
1.06738
0.972504
0.884214
0.801959
0.725342
0.654074
0.587951
0.526843
0.47067
0.419371
0.372857
0.330974
0.2935
0.26015
0.230604
0.204518
0.181538
0.161303
0.14345
0.127609
0.113413
0.10051
0.0885805
0.0773473
0.0665854
0.05612
0.0458226
0.0356075
0.0254285
0.0152501
0.00507771
0.337534
1.01329
1.68983
2.36343
3.02457
3.65718
4.23964
4.74821
5.16189
5.46695
5.65899
5.74216
5.72676
5.62655
5.45648
5.23139
4.96541
4.67186
4.36304
4.04985
3.74104
3.44294
3.1596
2.89338
2.64545
2.4163
2.20592
2.01389
1.83938
1.68104
1.53713
1.40566
1.28474
1.17281
1.06871
0.971631
0.881029
0.796512
0.717796
0.644683
0.577062
0.514893
0.458159
0.406799
0.360659
0.319483
0.282939
0.250652
0.222225
0.197259
0.175347
0.156079
0.139035
0.123793
0.109942
0.0971113
0.0849865
0.0733155
0.0619076
0.0506275
0.0393888
0.0281541
0.0168929
0.00562479
0.371198
1.11586
1.86567
2.61854
3.36458
4.08465
4.75137
5.33364
5.80379
6.14444
6.35108
6.4304
6.39651
6.26704
6.06021
5.79336
5.48264
5.14315
4.789
4.43281
4.08455
3.75098
3.43603
3.14168
2.86873
2.61734
2.38732
2.17814
1.98882
1.81776
1.66278
1.52138
1.39121
1.27047
1.15787
1.05261
0.954184
0.862227
0.776467
0.696715
0.622883
0.554985
0.493077
0.437147
0.387039
0.342456
0.30301
0.26826
0.237758
0.211055
0.187705
0.167254
0.149232
0.133154
0.118546
0.104982
0.0921067
0.079643
0.067388
0.0552024
0.043003
0.0307656
0.0184681
0.00614883
0.402548
1.21204
2.0327
2.86502
3.69931
4.51315
5.27196
5.93493
6.46553
6.84186
7.05999
7.13043
7.07232
6.90813
6.65973
6.34698
5.98791
5.59925
5.1971
4.79611
4.40761
4.03866
3.69275
3.37123
3.07428
2.80169
2.55309
2.32788
2.12498
1.94256
1.77792
1.62788
1.48956
1.36084
1.24042
1.12753
1.02175
0.92278
0.830353
0.744284
0.664507
0.59111
0.524259
0.464015
0.410221
0.362526
0.320464
0.283527
0.251206
0.223008
0.19845
0.177041
0.158261
0.14156
0.126387
0.112253
0.0987616
0.0856149
0.0726004
0.059579
0.0464733
0.0332781
0.0199836
0.00665205
0.431035
1.30023
2.18848
3.10005
4.02634
4.94153
5.8022
6.55468
7.1505
7.56228
7.78786
7.84331
7.75445
7.54968
7.25479
6.89206
6.48108
6.03998
5.58695
5.13929
4.70995
4.30597
3.93001
3.58243
3.26261
2.96986
2.7037
2.46353
2.24826
2.05589
1.88309
1.72577
1.58036
1.44447
1.31681
1.19676
1.08406
0.978475
0.879735
0.787648
0.702155
0.623442
0.551843
0.487527
0.430327
0.379811
0.335422
0.296565
0.262669
0.233204
0.207658
0.185509
0.166192
0.14908
0.133532
0.118986
0.105007
0.091279
0.0775844
0.063789
0.0498229
0.035706
0.0214463
0.00713606
0.456061
1.37869
2.33023
3.32025
4.34249
5.36803
6.34271
7.19578
7.86244
8.30878
8.53651
8.56965
8.44261
8.19103
7.84482
7.42823
6.96201
6.46512
5.95811
5.4618
4.99122
4.55293
4.14811
3.77581
3.43434
3.12247
2.8397
2.58554
2.35907
2.15822
1.97888
1.81571
1.66424
1.52191
1.38752
1.2607
1.14146
1.02962
0.924904
0.827078
0.736061
0.652162
0.575969
0.50781
0.447487
0.394446
0.348014
0.307497
0.27226
0.241742
0.215412
0.192729
0.173091
0.155786
0.140054
0.125249
0.110901
0.0966831
0.0823789
0.0678634
0.0530739
0.0380621
0.0228611
0.0076017
0.477012
1.44554
2.45491
3.52171
4.64389
5.79026
6.89398
7.86157
8.60556
9.08445
9.30745
9.30952
9.13589
8.83111
8.42896
7.955
7.43058
6.87454
6.31
5.76295
5.25106
4.77963
4.34748
3.95203
3.5902
3.26017
2.96167
2.6944
2.4578
2.24999
2.06591
1.89841
1.74188
1.59372
1.45299
1.31971
1.19425
1.07651
0.966151
0.862861
0.766473
0.677449
0.596769
0.524991
0.461837
0.406571
0.358383
0.316458
0.280095
0.248721
0.221794
0.198771
0.179028
0.161751
0.146026
0.131106
0.116499
0.101873
0.0870208
0.0718324
0.056248
0.0403571
0.0242308
0.0080487
0.493281
1.49892
2.55928
3.70004
4.92586
6.20505
7.45635
8.55606
9.38474
9.89238
10.1018
10.0625
9.83277
9.46838
9.00611
8.47178
7.88683
7.26827
6.64199
6.04183
5.48909
4.98627
4.52865
4.11185
3.73102
3.38371
3.07023
2.79057
2.54477
2.33163
2.14486
1.97465
1.81396
1.66047
1.51368
1.37412
1.24274
1.11946
1.00377
0.895296
0.793652
0.699473
0.614358
0.539192
0.473518
0.416336
0.366677
0.323587
0.286295
0.254243
0.226886
0.203697
0.184066
0.167053
0.151527
0.136624
0.121855
0.106894
0.091544
0.0757247
0.0593658
0.0425993
0.0255548
0.00847538
0.504309
1.53703
2.64008
3.85045
5.18287
6.60831
8.02997
9.28427
10.2058
10.7355
10.9203
10.8275
10.531
10.1009
9.57508
8.97794
8.33109
7.6466
6.9533
6.2973
5.70491
5.17319
4.69226
4.25617
3.85777
3.49384
3.16605
2.87454
2.62022
2.40345
2.21645
2.04532
1.88119
1.72272
1.57001
1.42422
1.28721
1.15873
1.03804
0.924701
0.817878
0.718391
0.628826
0.550526
0.482681
0.423894
0.373054
0.329032
0.290985
0.258412
0.230767
0.207566
0.188262
0.171769
0.156639
0.141868
0.127022
0.111784
0.0959783
0.0795682
0.0624483
0.0447936
0.0268281
0.00887825
0.509624
1.55826
2.69414
3.96789
5.40855
6.99474
8.61471
10.0526
11.0756
11.6163
11.763
11.6032
11.2276
10.7265
10.1346
9.47272
8.76407
8.01029
7.24293
6.52784
5.89817
5.34095
4.83901
4.38605
3.97152
3.59135
3.24984
2.9468
2.68426
2.46571
2.28149
2.11138
1.94426
1.78102
1.62237
1.47024
1.32788
1.1946
1.06922
0.951413
0.839461
0.734338
0.640226
0.559105
0.489484
0.429402
0.377677
0.332946
0.294284
0.261332
0.233516
0.210421
0.191665
0.175982
0.161447
0.146896
0.132046
0.116582
0.100348
0.08339
0.0655178
0.0469417
0.0280406
0.00925155
0.508867
1.56133
2.71858
4.04718
5.59558
7.35758
9.20988
10.8694
12.0028
12.5366
12.6294
12.3876
11.9186
11.3428
10.6834
9.95512
9.18703
8.36077
7.50956
6.73143
6.06866
5.49045
4.96967
4.50264
4.07351
3.67696
3.32237
3.00789
2.7368
2.51846
2.34089
2.17398
2.00381
1.83586
1.67117
1.51232
1.36498
1.22734
1.09754
0.975802
0.85875
0.747411
0.648559
0.565034
0.494103
0.433016
0.380714
0.335488
0.296308
0.263107
0.23521
0.212291
0.19431
0.179781
0.166048
0.151762
0.136971
0.12132
0.104668
0.0872172
0.0686
0.0490404
0.0291752
0.00958682
0.501832
1.54533
2.71098
4.08324
5.73583
7.68823
9.81389
11.7456
12.9978
13.4964
13.5184
13.1788
12.5987
11.9471
11.2208
10.4236
9.60202
8.70043
7.75133
6.90524
6.21641
5.62303
5.0849
4.60729
4.16514
3.75124
3.38448
3.05847
2.77751
2.56153
2.39577
2.23443
2.06036
1.88772
1.71677
1.55047
1.39872
1.25724
1.12316
0.99828
0.876164
0.757656
0.653756
0.568426
0.496741
0.434884
0.382338
0.336825
0.297161
0.263843
0.235929
0.213183
0.196214
0.183268
0.170545
0.156505
0.141834
0.12603
0.108942
0.0910784
0.0717272
0.0510814
0.0302064
0.00987242
0.488482
1.50983
2.66956
4.07137
5.82037
7.97576
10.4236
12.6958
14.074
14.4929
14.4283
13.9752
13.2608
12.5374
11.7463
10.8757
10.0121
9.0331
7.96549
7.04546
6.34192
5.74068
5.18508
4.70151
4.24811
3.81448
3.43713
3.09939
2.8057
2.59442
2.44753
2.29434
2.1142
1.93704
1.75962
1.58457
1.42927
1.28462
1.14615
1.01932
0.892221
0.765039
0.655656
0.569414
0.497637
0.435129
0.382726
0.337134
0.296926
0.263652
0.23576
0.21308
0.197368
0.186564
0.175062
0.161143
0.146671
0.130745
0.113159
0.0950058
0.0749426
0.0530485
0.0310984
0.0100931
0.468965
1.45497
2.59336
4.0075
5.83978
8.2065
11.0331
13.7396
15.2481
15.5191
15.3573
14.7762
13.8954
13.1122
12.2608
11.3069
10.4217
9.36461
8.14797
7.14682
6.44647
5.84629
5.27
4.78705
4.32446
3.86646
3.4815
3.13185
2.82021
2.61614
2.49799
2.35572
2.16524
1.98425
1.80024
1.61418
1.45689
1.30986
1.16638
1.03948
0.90759
0.769408
0.653974
0.568171
0.497093
0.433835
0.382068
0.336616
0.295652
0.262653
0.23481
0.211925
0.197728
0.189819
0.179746
0.165659
0.151517
0.135501
0.117278
0.0990381
0.0783065
0.0549146
0.0318033
0.0102301
0.443609
1.38145
2.48238
3.8886
5.78446
8.36356
11.6327
14.9035
16.542
16.5602
16.3035
15.5836
14.4887
13.6713
12.7671
11.7098
10.8372
9.7037
8.29269
7.20216
6.5326
5.94399
5.3383
4.86604
4.39683
3.90606
3.51906
3.15765
2.81922
2.62503
2.54958
2.42108
2.21274
2.02981
1.83936
1.63853
1.48188
1.3335
1.18344
1.05944
0.923159
0.770443
0.648268
0.564947
0.495492
0.431007
0.380564
0.335499
0.293331
0.260983
0.233216
0.209617
0.197202
0.19323
0.184778
0.169984
0.156409
0.140352
0.121222
0.103225
0.0819046
0.0566371
0.032259
0.010261
0.412915
1.29052
2.33766
3.71298
5.64518
8.42649
12.2058
16.2228
17.9841
17.5905
17.267
16.4032
15.021
14.2168
13.2706
12.0717
11.2674
10.063
8.39055
7.20185
6.60474
6.03957
5.38674
4.94119
4.46877
3.93082
3.55174
3.17942
2.80003
2.61852
2.60562
2.49368
2.25495
2.07434
1.87809
1.65623
1.50474
1.35633
1.19645
1.08009
0.940124
0.767571
0.6379
0.56011
0.493332
0.426528
0.378445
0.334063
0.28987
0.258806
0.231164
0.205994
0.195631
0.197055
0.190391
0.173964
0.161401
0.145376
0.124853
0.107635
0.0858586
0.0581493
0.0323884
0.0101605
0.377529
1.18398
2.16135
3.48063
5.41382
8.37128
12.7263
17.7453
19.6124
18.5676
18.2508
17.2468
15.4632
14.755
13.7813
12.3721
11.7252
10.4608
8.4282
7.13315
6.67002
6.14112
5.40909
5.01617
4.54514
3.93613
3.58221
3.20105
2.75881
2.5928
2.67067
2.57776
2.2886
2.11874
1.91808
1.66503
1.52624
1.37948
1.20387
1.10257
0.960115
0.759867
0.621986
0.554211
0.491269
0.42008
0.37599
0.332668
0.285042
0.256326
0.228916
0.200816
0.192765
0.201647
0.196887
0.177322
0.166574
0.150698
0.127948
0.112363
0.0903403
0.0593496
0.0320988
0.0099024
0.338208
1.06403
1.95661
3.19353
5.08429
8.17071
13.1539
19.5344
21.4774
19.4251
19.2642
18.136
15.7723
15.2976
14.3156
12.5788
12.2282
10.9224
8.38623
6.9795
6.73941
6.25971
5.39462
5.09614
4.63277
3.91423
3.61424
3.22819
2.69019
2.54242
2.75094
2.67893
2.30816
2.16445
1.96187
1.66136
1.54765
1.40467
1.2031
1.12842
0.985343
0.745907
0.599357
0.548059
0.490168
0.411048
0.37356
0.331788
0.278425
0.253814
0.226839
0.193742
0.188233
0.20748
0.204663
0.1796
0.172065
0.15651
0.130154
0.11755
0.0955886
0.0600838
0.0312836
0.00946092
0.295783
0.933214
1.72754
2.85574
4.65359
7.79553
13.4277
21.6743
23.6471
20.0621
20.3269
19.1058
15.8853
15.8656
14.8996
12.6424
12.8016
11.4827
8.2369
6.71978
6.82893
6.41037
5.32599
5.18855
4.74123
3.85283
3.65319
3.26884
2.58685
2.45979
2.85482
2.80455
2.30491
2.21387
2.0132
1.6398
1.57096
1.43442
1.19011
1.15974
1.01878
0.723578
0.568508
0.542812
0.491169
0.398385
0.37165
0.332067
0.269317
0.251638
0.225445
0.184309
0.181506
0.215189
0.214249
0.180082
0.178091
0.163108
0.13094
0.1234
0.101931
0.0601228
0.0298266
0.00881431
0.251115
0.794244
1.47899
2.47351
4.12289
7.21658
13.4583
24.2753
26.2132
20.3309
21.4744
20.2099
15.7103
16.4925
15.5722
12.4896
13.4805
12.189
7.94126
6.32763
6.9612
6.61332
5.17665
5.30433
4.88394
3.73322
3.70678
3.33402
2.43897
2.33462
2.99354
2.96442
2.26568
2.27082
2.07756
1.59225
1.59923
1.4724
1.15877
1.19948
1.0644
0.689835
0.52757
0.540089
0.495762
0.380437
0.370959
0.334381
0.256623
0.250309
0.225434
0.171899
0.171846
0.22562
0.226353
0.177697
0.185002
0.170934
0.129519
0.130211
0.109807
0.0591311
0.0276103
0.00794842
0.205058
0.649904
1.21627
2.05505
3.49863
6.40843
13.1178
27.4804
29.2995
20.02
22.7665
21.5272
15.116
17.2296
16.3903
12.0142
14.3143
13.1033
7.44559
5.77095
7.16703
6.89542
4.90735
5.45936
5.07947
3.52794
3.78602
3.43858
2.23364
2.15322
3.18182
3.17144
2.17126
2.34132
2.16272
1.50698
1.6371
1.52382
1.10015
1.2517
1.12738
0.640405
0.474291
0.542079
0.505895
0.354716
0.372488
0.339922
0.238709
0.250536
0.22774
0.155706
0.158257
0.239883
0.241919
0.170891
0.19334
0.180625
0.124761
0.138417
0.119798
0.0566266
0.02453
0.00686071
0.158415
0.502891
0.944917
1.61016
2.79329
5.35472
12.2263
31.4727
33.0713
18.8335
24.2967
23.1694
13.9174
18.1527
17.434
11.066
15.3713
14.3064
6.67712
5.01159
7.48715
7.29209
4.46204
5.67651
5.35306
3.19786
3.90657
3.60196
1.95414
1.89776
3.43867
3.44259
1.99445
2.43453
2.27944
1.36734
1.6913
1.59594
1.00156
1.32203
1.21442
0.569414
0.406051
0.551669
0.524085
0.317629
0.377672
0.350296
0.21322
0.25331
0.233585
0.134706
0.139415
0.259404
0.262206
0.157471
0.203912
0.193079
0.115076
0.148637
0.132656
0.0519303
0.0205143
0.00556427
0.11192
0.355711
0.67035
1.14971
2.0256
4.05569
10.5371
36.4836
37.7487
16.3671
26.2055
25.289
11.8593
19.3704
18.814
9.43762
16.7451
15.9007
5.53906
4.00548
7.97383
7.84956
3.76277
5.98814
5.73853
2.68859
4.09037
3.849
1.57928
1.54549
3.78822
3.80005
1.69771
2.5639
2.44223
1.15024
1.77149
1.69864
0.845442
1.41823
1.33398
0.468966
0.319906
0.572548
0.553573
0.264147
0.388537
0.367631
0.17687
0.260005
0.244526
0.10762
0.113603
0.285992
0.288874
0.134416
0.217894
0.209526
0.0982761
0.16175
0.149337
0.0441047
0.0155553
0.00409076
0.0662082
0.210586
0.397614
0.684881
1.22014
2.53828
7.71849
42.8011
43.6217
12.0783
28.6958
28.0895
8.59671
21.0336
20.679
6.84904
18.5627
18.0137
3.90501
2.70322
8.69224
8.62763
2.70385
6.43916
6.28028
1.92637
4.36772
4.21065
1.08259
1.06788
4.2604
4.27259
1.23043
2.7487
2.67026
0.82435
1.89108
1.8451
0.60799
1.55084
1.49659
0.328649
0.212695
0.609306
0.59849
0.18742
0.40791
0.394707
0.125176
0.272501
0.262493
0.0728836
0.078632
0.321895
0.324101
0.0976592
0.236942
0.23161
0.0714116
0.178972
0.171033
0.0318817
0.00974798
0.00249137
0.0218099
0.0693935
0.131141
0.226358
0.405647
0.868897
3.33263
50.7793
51.0675
5.25445
32.0509
31.8352
3.67167
23.3472
23.2242
2.9296
20.9942
20.8008
1.61274
1.0514
9.72147
9.70291
1.14518
7.09061
7.03549
0.813327
4.77983
4.72444
0.431609
0.429843
4.89172
4.89714
0.525772
3.01568
2.98823
0.348055
2.06835
2.0525
0.257683
1.73402
1.71505
0.134995
0.0811952
0.667489
0.664069
0.0783448
0.439646
0.435089
0.0521759
0.293344
0.289827
0.0286219
0.0317625
0.369854
0.370711
0.0418334
0.263332
0.261481
0.0305864
0.201965
0.199202
0.01358
0.00334177
0.000834545
)
;

boundaryField
{
    left
    {
        type            calculated;
        value           uniform 0;
    }
    right
    {
        type            calculated;
        value           uniform 0;
    }
    interface
    {
        type            calculated;
        value           nonuniform List<scalar> 
64
(
0.0218099
0.0693935
0.131141
0.226358
0.405647
0.868897
3.33263
50.7793
51.0675
5.25445
32.0509
31.8352
3.67167
23.3472
23.2242
2.9296
20.9942
20.8008
1.61274
1.0514
9.72147
9.70291
1.14518
7.09061
7.03549
0.813327
4.77983
4.72444
0.431609
0.429843
4.89172
4.89714
0.525772
3.01568
2.98823
0.348055
2.06835
2.0525
0.257683
1.73402
1.71505
0.134995
0.0811952
0.667489
0.664069
0.0783448
0.439646
0.435089
0.0521759
0.293344
0.289827
0.0286219
0.0317625
0.369854
0.370711
0.0418334
0.263332
0.261481
0.0305864
0.201965
0.199202
0.01358
0.00334177
0.000834545
)
;
    }
    bottom
    {
        type            calculated;
        value           nonuniform List<scalar> 
64
(
0.0220123
0.0657898
0.108805
0.150481
0.190162
0.227122
0.260603
0.289881
0.314334
0.333516
0.347198
0.355388
0.358315
0.356398
0.350196
0.340355
0.327567
0.312524
0.295886
0.278255
0.260158
0.242036
0.224244
0.20705
0.190646
0.17516
0.160665
0.147185
0.134714
0.123212
0.112624
0.102881
0.0939086
0.0856354
0.0779941
0.0709263
0.0643826
0.0583227
0.0527143
0.0475317
0.0427543
0.0383646
0.0343473
0.0306869
0.0273672
0.0243705
0.021677
0.0192652
0.0171119
0.0151927
0.0134825
0.0119559
0.0105878
0.00935377
0.0082307
0.00719726
0.00623438
0.00532548
0.00445666
0.00361661
0.00279645
0.00198942
0.00119058
0.000396345
)
;
    }
    defaultFaces
    {
        type            empty;
    }
}


// ************************************************************************* //
