/*--------------------------------*- C++ -*----------------------------------*\
| =========                 |                                                 |
| \\      /  F ield         | OpenFOAM: The Open Source CFD Toolbox           |
|  \\    /   O peration     | Version:  5.x                                   |
|   \\  /    A nd           | Web:      www.OpenFOAM.org                      |
|    \\/     M anipulation  |                                                 |
\*---------------------------------------------------------------------------*/
FoamFile
{
    version     2.0;
    format      ascii;
    class       volScalarField;
    location    "6";
    object      gradTy;
}
// * * * * * * * * * * * * * * * * * * * * * * * * * * * * * * * * * * * * * //

dimensions      [0 -1 0 1 0 0 0];

internalField   nonuniform List<scalar> 
2048
(
-20.2426
-20.1466
-19.9557
-19.6721
-19.2993
-18.8425
-18.3082
-17.705
-17.0429
-16.3329
-15.5871
-14.8176
-14.0364
-13.2546
-12.4822
-11.7279
-10.999
-10.301
-9.63812
-9.01306
-8.42734
-7.88141
-7.37484
-6.90655
-6.47495
-6.07812
-5.71395
-5.3802
-5.07465
-4.79512
-4.53954
-4.306
-4.09274
-3.89816
-3.72083
-3.55943
-3.41279
-3.27983
-3.15952
-3.05092
-2.95314
-2.86531
-2.7866
-2.71623
-2.65343
-2.59749
-2.54771
-2.50345
-2.46414
-2.42924
-2.39825
-2.37076
-2.34639
-2.32483
-2.30581
-2.28911
-2.27457
-2.26204
-2.25144
-2.24268
-2.23572
-2.23053
-2.22708
-2.22536
-20.3202
-20.2234
-20.0307
-19.7442
-19.3674
-18.905
-18.364
-17.7527
-17.0815
-16.3619
-15.6062
-14.8271
-14.0368
-13.2469
-12.4675
-11.7074
-10.9739
-10.2726
-9.60748
-8.9812
-8.39512
-7.84953
-7.34384
-6.87682
-6.44677
-6.05166
-5.68928
-5.35734
-5.05355
-4.77568
-4.52166
-4.28954
-4.07757
-3.88415
-3.70787
-3.54743
-3.40167
-3.26952
-3.14998
-3.04211
-2.94502
-2.85786
-2.77979
-2.71004
-2.64783
-2.59243
-2.54317
-2.49939
-2.46052
-2.426
-2.39536
-2.36817
-2.34406
-2.32271
-2.30386
-2.28731
-2.27287
-2.26043
-2.24988
-2.24117
-2.23424
-2.22906
-2.22562
-2.2239
-20.4677
-20.3694
-20.1734
-19.8816
-19.4971
-19.0244
-18.4704
-17.8437
-17.1551
-16.4169
-15.6422
-14.8446
-14.0371
-13.2316
-12.4388
-11.6677
-10.9256
-10.218
-9.54877
-8.92029
-8.33365
-7.7888
-7.28488
-6.82037
-6.39333
-6.00154
-5.64261
-5.31412
-5.01368
-4.739
-4.48792
-4.2585
-4.04896
-3.85773
-3.68343
-3.52479
-3.38068
-3.25006
-3.13196
-3.02546
-2.92969
-2.84378
-2.76694
-2.69834
-2.63724
-2.5829
-2.53461
-2.49174
-2.45369
-2.41991
-2.38992
-2.3633
-2.33968
-2.31873
-2.30021
-2.28392
-2.26968
-2.25739
-2.24695
-2.23831
-2.23143
-2.22629
-2.22287
-2.22116
-20.6769
-20.5765
-20.3761
-20.0772
-19.682
-19.1949
-18.6224
-17.9735
-17.2598
-16.4946
-15.6925
-14.8682
-14.0358
-13.2082
-12.3964
-11.6097
-10.8555
-10.1392
-9.46441
-8.83309
-8.24591
-7.70238
-7.20119
-6.74043
-6.3178
-5.93082
-5.57686
-5.25334
-4.95769
-4.68753
-4.44062
-4.21499
-4.00886
-3.8207
-3.64915
-3.49302
-3.35121
-3.22273
-3.10665
-3.00207
-2.90813
-2.824
-2.74887
-2.68192
-2.62239
-2.56952
-2.52262
-2.48103
-2.44414
-2.4114
-2.38234
-2.35652
-2.33357
-2.31319
-2.29513
-2.27919
-2.26523
-2.25314
-2.24285
-2.23431
-2.2275
-2.22239
-2.21899
-2.2173
-20.9404
-20.8377
-20.6324
-20.325
-19.917
-19.4119
-18.816
-18.1386
-17.3924
-16.5923
-15.7547
-14.896
-14.0317
-13.1757
-12.3399
-11.5338
-10.7646
-10.0377
-9.35621
-8.72177
-8.13437
-7.59294
-7.09555
-6.63981
-6.22299
-5.84224
-5.49469
-5.17751
-4.88797
-4.62353
-4.38188
-4.16098
-3.9591
-3.77472
-3.60657
-3.45352
-3.31454
-3.1887
-3.07511
-2.9729
-2.88125
-2.79934
-2.72635
-2.66147
-2.60391
-2.55291
-2.50775
-2.46775
-2.43232
-2.40089
-2.37298
-2.34816
-2.32606
-2.30638
-2.28888
-2.27338
-2.25974
-2.24789
-2.23777
-2.22935
-2.2226
-2.21754
-2.21417
-2.21248
-21.2518
-21.1469
-20.9366
-20.6201
-20.1978
-19.6719
-19.0481
-18.3363
-17.5504
-16.7075
-15.8264
-14.9257
-14.0229
-13.1331
-12.2688
-11.4397
-10.6532
-9.91424
-9.22556
-8.58809
-8.00111
-7.46276
-6.97042
-6.52103
-6.1114
-5.73829
-5.3985
-5.08896
-4.80673
-4.54909
-4.31364
-4.09829
-3.90132
-3.72131
-3.55706
-3.40755
-3.27183
-3.14902
-3.0383
-2.93885
-2.84987
-2.77055
-2.70007
-2.63762
-2.58239
-2.53359
-2.49048
-2.45237
-2.41865
-2.38876
-2.3622
-2.33854
-2.31742
-2.29855
-2.28169
-2.26668
-2.25342
-2.24183
-2.23189
-2.22358
-2.21691
-2.21189
-2.20853
-2.20686
-21.605
-21.4984
-21.2836
-20.9584
-20.521
-19.9722
-19.3167
-18.5645
-17.7316
-16.8379
-15.9052
-14.9553
-14.0078
-13.079
-12.1822
-11.3273
-10.5216
-9.76961
-9.07355
-8.43354
-7.84794
-7.31393
-6.828
-6.38639
-5.98534
-5.62121
-5.29048
-4.98979
-4.71597
-4.46612
-4.23769
-4.02856
-3.83705
-3.66184
-3.50188
-3.35624
-3.22409
-3.10464
-2.9971
-2.9007
-2.8147
-2.73828
-2.67065
-2.61096
-2.55836
-2.51205
-2.47126
-2.43529
-2.40351
-2.37534
-2.3503
-2.32795
-2.30793
-2.28995
-2.27379
-2.25932
-2.24644
-2.23512
-2.22535
-2.21715
-2.21054
-2.20556
-2.20222
-2.20055
-21.9945
-21.8868
-21.6688
-21.336
-20.884
-20.311
-19.6201
-18.8218
-17.9343
-16.9813
-15.989
-14.9826
-13.9842
-13.0118
-12.0791
-11.1961
-10.3698
-9.60427
-8.90108
-8.25942
-7.67651
-7.14833
-6.67034
-6.23797
-5.8469
-5.49305
-5.1726
-4.8819
-4.61754
-4.37637
-4.15568
-3.95331
-3.76765
-3.59756
-3.44213
-3.3006
-3.17226
-3.05638
-2.95225
-2.85916
-2.77637
-2.70313
-2.63862
-2.58197
-2.5323
-2.48874
-2.45051
-2.41689
-2.38723
-2.36095
-2.33757
-2.31665
-2.29782
-2.28079
-2.26538
-2.25146
-2.23897
-2.22791
-2.2183
-2.21019
-2.20363
-2.19867
-2.19534
-2.19367
-22.4145
-22.307
-22.0879
-21.7498
-21.2847
-20.687
-19.9576
-19.1072
-18.157
-17.1359
-16.0754
-15.0052
-13.9502
-12.93
-11.9585
-11.0456
-10.1978
-9.41862
-8.70896
-8.06694
-7.48836
-6.96775
-6.49936
-6.07776
-5.69801
-5.35568
-5.04667
-4.76705
-4.51311
-4.28144
-4.0691
-3.8739
-3.69436
-3.52955
-3.37879
-3.24152
-3.11713
-3.00499
-2.90444
-2.81482
-2.73546
-2.66562
-2.60448
-2.55113
-2.50462
-2.46405
-2.42859
-2.39749
-2.37011
-2.34588
-2.32428
-2.30487
-2.28731
-2.27129
-2.25664
-2.24327
-2.23116
-2.22033
-2.21086
-2.20282
-2.19629
-2.19133
-2.18799
-2.18632
-22.8597
-22.7541
-22.5367
-22.1968
-21.7213
-21.0997
-20.3292
-19.4205
-18.3987
-17.2997
-16.162
-15.0206
-13.9038
-12.8321
-11.8195
-10.8754
-10.0056
-9.21298
-8.4979
-7.85722
-7.28498
-6.77392
-6.31691
-5.90758
-5.54046
-5.21082
-4.91431
-4.64678
-4.4042
-4.18279
-3.97934
-3.79158
-3.61827
-3.45878
-3.31273
-3.17977
-3.05942
-2.95112
-2.85426
-2.76824
-2.69244
-2.62618
-2.56864
-2.51882
-2.47571
-2.43834
-2.40582
-2.3774
-2.35244
-2.33035
-2.31063
-2.29284
-2.27659
-2.26161
-2.24773
-2.23489
-2.22313
-2.21251
-2.20314
-2.19513
-2.18859
-2.18361
-2.18026
-2.17859
-23.3246
-23.2229
-23.0113
-22.6744
-22.1929
-21.5492
-20.7356
-19.7617
-18.6583
-17.4706
-16.2461
-15.0263
-13.8428
-12.7167
-11.6614
-10.6853
-9.7932
-8.98771
-8.26857
-7.63135
-7.06785
-6.56855
-6.12477
-5.7292
-5.3759
-5.05999
-4.77699
-4.5225
-4.29218
-4.08177
-3.88764
-3.70747
-3.54036
-3.38609
-3.24468
-3.11602
-2.99974
-2.89533
-2.80223
-2.71988
-2.64774
-2.58521
-2.53146
-2.48541
-2.44591
-2.41191
-2.38249
-2.35688
-2.33443
-2.31459
-2.29683
-2.28071
-2.26584
-2.25191
-2.23878
-2.22645
-2.21499
-2.20453
-2.19521
-2.18719
-2.18061
-2.1756
-2.17222
-2.17054
-23.8036
-23.7085
-23.5076
-23.1799
-22.6985
-22.0365
-21.1783
-20.1318
-18.935
-17.6464
-16.3252
-15.0197
-13.765
-12.5824
-11.4835
-10.475
-9.56087
-8.74311
-8.02158
-7.39043
-6.83849
-6.35336
-5.92469
-5.54429
-5.20586
-4.9046
-4.63599
-4.39545
-4.17829
-3.97962
-3.79518
-3.62259
-3.46146
-3.3122
-3.17526
-3.05082
-2.93862
-2.83812
-2.74879
-2.67014
-2.60171
-2.54303
-2.49327
-2.4512
-2.41551
-2.38504
-2.35885
-2.33614
-2.3163
-2.29877
-2.28305
-2.26866
-2.2552
-2.24233
-2.22993
-2.21805
-2.20684
-2.19647
-2.18716
-2.17909
-2.17243
-2.16736
-2.16393
-2.16224
-24.291
-24.2057
-24.0213
-23.7109
-23.2379
-22.563
-21.6596
-20.5321
-19.228
-17.8247
-16.3959
-14.9977
-13.6685
-12.4283
-11.2854
-10.2448
-9.30891
-8.47948
-7.75745
-7.13556
-6.59847
-6.13009
-5.7184
-5.35445
-5.03174
-4.74587
-4.49245
-4.26669
-4.06361
-3.87749
-3.70306
-3.53783
-3.3823
-3.2377
-3.10497
-2.98466
-2.87652
-2.77992
-2.69436
-2.61937
-2.55463
-2.4999
-2.45434
-2.41648
-2.38479
-2.358
-2.33513
-2.31539
-2.29821
-2.28306
-2.26942
-2.25682
-2.2448
-2.23299
-2.22127
-2.20978
-2.19875
-2.18842
-2.17905
-2.17088
-2.1641
-2.15893
-2.15545
-2.15375
-24.7814
-24.7093
-24.5482
-24.2647
-23.8106
-23.131
-22.183
-20.9646
-19.5363
-18.0024
-16.455
-14.9572
-13.5511
-12.2534
-11.067
-9.99514
-9.03789
-8.19703
-7.47658
-6.86784
-6.3495
-5.90052
-5.5076
-5.16121
-4.85478
-4.58487
-4.34732
-4.13711
-3.94913
-3.77647
-3.61232
-3.454
-3.30347
-3.16307
-3.03422
-2.91791
-2.81384
-2.72111
-2.63929
-2.56789
-2.50676
-2.45603
-2.41489
-2.38151
-2.35399
-2.331
-2.31152
-2.29479
-2.28031
-2.26757
-2.25606
-2.24531
-2.23477
-2.224
-2.21289
-2.20171
-2.19078
-2.18042
-2.17093
-2.1626
-2.15565
-2.15036
-2.14682
-2.14513
-25.2691
-25.2139
-25.0838
-24.8383
-24.4165
-23.7433
-22.7533
-21.4324
-19.8583
-18.176
-16.4988
-14.8948
-13.4109
-12.0573
-10.8286
-9.72675
-8.74863
-7.89584
-7.17914
-6.58846
-6.09344
-5.66645
-5.29394
-4.96605
-4.67608
-4.42252
-4.20145
-4.00742
-3.83565
-3.67762
-3.52399
-3.37179
-3.22545
-3.08868
-2.96328
-2.85089
-2.75093
-2.66203
-2.58389
-2.51598
-2.45826
-2.41157
-2.37513
-2.34651
-2.32333
-2.30423
-2.2882
-2.27448
-2.2627
-2.2524
-2.24306
-2.23421
-2.22522
-2.21547
-2.20487
-2.1939
-2.18299
-2.17251
-2.16284
-2.15429
-2.14711
-2.14169
-2.13809
-2.13641
-25.7487
-25.7142
-25.6233
-25.4287
-25.0552
-24.4036
-23.3765
-21.9394
-20.1917
-18.341
-16.5234
-14.8069
-13.2462
-11.8404
-10.5706
-9.44085
-8.44238
-7.57569
-6.86494
-6.29865
-5.83246
-5.42969
-5.07904
-4.77042
-4.49656
-4.25955
-4.05554
-3.87812
-3.72385
-3.58201
-3.43913
-3.29175
-3.14855
-3.01482
-2.89235
-2.78384
-2.68812
-2.60295
-2.52847
-2.4639
-2.40925
-2.3666
-2.33524
-2.31173
-2.29302
-2.27788
-2.26533
-2.25457
-2.24549
-2.23765
-2.23048
-2.2236
-2.21623
-2.20748
-2.19726
-2.18639
-2.17542
-2.16473
-2.15482
-2.14601
-2.13852
-2.13292
-2.12929
-2.12764
-26.2148
-26.205
-26.1617
-26.0319
-25.726
-25.1159
-24.0608
-22.4912
-20.533
-18.4917
-16.5253
-14.6894
-13.0551
-11.6036
-10.2937
-9.13905
-8.12102
-7.23588
-6.53331
-5.99986
-5.56912
-5.19198
-4.86442
-4.5758
-4.31691
-4.09656
-3.91024
-3.74946
-3.61422
-3.49076
-3.35891
-3.21428
-3.07294
-2.94174
-2.82149
-2.71692
-2.62575
-2.54412
-2.4733
-2.41192
-2.35976
-2.32113
-2.29536
-2.2774
-2.26323
-2.2521
-2.24303
-2.23515
-2.22874
-2.22337
-2.21836
-2.21354
-2.2079
-2.20013
-2.1901
-2.17921
-2.1681
-2.15709
-2.1469
-2.13777
-2.12989
-2.12409
-2.12044
-2.11887
-26.6626
-26.6811
-26.6937
-26.6436
-26.4277
-25.8848
-24.8164
-23.0953
-20.8759
-18.6212
-16.5013
-14.5372
-12.8365
-11.349
-9.99824
-8.82343
-7.78738
-6.87493
-6.18283
-5.6938
-5.30662
-4.95483
-4.65145
-4.38375
-4.13749
-3.93396
-3.76621
-3.62137
-3.50704
-3.4051
-3.28468
-3.13952
-2.99862
-2.86966
-2.75061
-2.65027
-2.5642
-2.4857
-2.41865
-2.36037
-2.30975
-2.2751
-2.25566
-2.2438
-2.23412
-2.22702
-2.22146
-2.21626
-2.2125
-2.20963
-2.20671
-2.20406
-2.20034
-2.19352
-2.18341
-2.17237
-2.16107
-2.14961
-2.13909
-2.12962
-2.12121
-2.11518
-2.11159
-2.11014
-27.0876
-27.1376
-27.214
-27.2586
-27.1577
-26.7149
-25.6566
-23.7627
-21.2104
-18.7209
-16.4503
-14.3444
-12.5888
-11.0809
-9.68393
-8.49648
-7.44589
-6.49005
-5.81107
-5.38267
-5.0491
-4.71927
-4.44131
-4.19618
-3.9582
-3.77199
-3.62432
-3.49338
-3.40231
-3.32647
-3.21811
-3.06726
-2.92539
-2.79893
-2.67944
-2.58394
-2.50394
-2.42775
-2.36479
-2.30966
-2.25903
-2.22833
-2.21632
-2.21124
-2.20579
-2.20274
-2.20074
-2.19792
-2.19679
-2.19647
-2.19552
-2.19518
-2.19365
-2.18778
-2.17717
-2.16586
-2.15436
-2.14227
-2.13144
-2.12162
-2.11249
-2.10619
-2.10275
-2.10152
-27.4859
-27.5698
-27.7168
-27.871
-27.9124
-27.6103
-26.5974
-24.5093
-21.5205
-18.7804
-16.3743
-14.1024
-12.3112
-10.8059
-9.34885
-8.16116
-7.1035
-6.07642
-5.41429
-5.0694
-4.80208
-4.48546
-4.23492
-4.01555
-3.77822
-3.61073
-3.48582
-3.36442
-3.29964
-3.2566
-3.16139
-2.9967
-2.85282
-2.7301
-2.60744
-2.51795
-2.44566
-2.37016
-2.31197
-2.2604
-2.20725
-2.18051
-2.17753
-2.18016
-2.1783
-2.17934
-2.18106
-2.18009
-2.18164
-2.18399
-2.18471
-2.18688
-2.18797
-2.18307
-2.17131
-2.15966
-2.14803
-2.13503
-2.12394
-2.11384
-2.10369
-2.09709
-2.09395
-2.09304
-27.8541
-27.9738
-28.1967
-28.4737
-28.6861
-28.5737
-27.659
-25.3584
-21.7801
-18.7871
-16.281
-13.7987
-12.0026
-10.5353
-8.98792
-7.82078
-6.77117
-5.62601
-4.98712
-4.75801
-4.5731
-4.25194
-4.03283
-3.84543
-3.59562
-3.4501
-3.35279
-3.23261
-3.19821
-3.19759
-3.11757
-2.92612
-2.78026
-2.66424
-2.53361
-2.45224
-2.39039
-2.31248
-2.26046
-2.2135
-2.15376
-2.13121
-2.13958
-2.1511
-2.15158
-2.15687
-2.16263
-2.16267
-2.16702
-2.17229
-2.17416
-2.1791
-2.18343
-2.17959
-2.1657
-2.15373
-2.14219
-2.12783
-2.11663
-2.10639
-2.09476
-2.08786
-2.08523
-2.08479
-28.1898
-28.346
-28.6482
-29.0593
-29.4709
-29.6058
-28.8649
-26.3459
-21.9487
-18.7268
-16.188
-13.4141
-11.6621
-10.2872
-8.59059
-7.47899
-6.46608
-5.12577
-4.52224
-4.45399
-4.37266
-4.01467
-3.83521
-3.69121
-3.40672
-3.28985
-3.22863
-3.09481
-3.0966
-3.15206
-3.09094
-2.85242
-2.70677
-2.60323
-2.45626
-2.38673
-2.33971
-2.25377
-2.21051
-2.17039
-2.0975
-2.07982
-2.10286
-2.12481
-2.12538
-2.13531
-2.1458
-2.14543
-2.15293
-2.16158
-2.16366
-2.17175
-2.18023
-2.17765
-2.16008
-2.148
-2.137
-2.12051
-2.10953
-2.09946
-2.0856
-2.07843
-2.07662
-2.07682
-28.4911
-28.6836
-29.0664
-29.6194
-30.2567
-30.7034
-30.2419
-27.5259
-21.9632
-18.5832
-16.1279
-12.9182
-11.2889
-10.0898
-8.13735
-7.13959
-6.21494
-4.55497
-4.01037
-4.16472
-4.21553
-3.76547
-3.64177
-3.56125
-3.20511
-3.12959
-3.11893
-2.94605
-2.99271
-3.12317
-3.08771
-2.77037
-2.63123
-2.55029
-2.3726
-2.32125
-2.29611
-2.19231
-2.16236
-2.13325
-2.03681
-2.02557
-2.06788
-2.10237
-2.09917
-2.11464
-2.13108
-2.12797
-2.13932
-2.15217
-2.15288
-2.16469
-2.17858
-2.17768
-2.15405
-2.1424
-2.13275
-2.11283
-2.10264
-2.0933
-2.07604
-2.06873
-2.06817
-2.06922
-28.757
-28.9845
-29.4468
-30.1454
-31.0305
-31.8581
-31.8183
-28.9806
-21.7278
-18.3396
-16.156
-12.2629
-10.8824
-9.98673
-7.59467
-6.8065
-6.05856
-3.88126
-3.44048
-3.89981
-4.12253
-3.48991
-3.45183
-3.46844
-2.98021
-2.96888
-3.03251
-2.77867
-2.88379
-3.11461
-3.11693
-2.67159
-2.55232
-2.5107
-2.27815
-2.25563
-2.2634
-2.12512
-2.11622
-2.10544
-1.96901
-1.96754
-2.03533
-2.08523
-2.072
-2.09479
-2.11926
-2.10964
-2.12615
-2.14458
-2.14133
-2.15772
-2.17872
-2.18033
-2.14693
-2.13684
-2.12987
-2.10438
-2.09597
-2.08832
-2.06578
-2.05867
-2.05993
-2.06207
-28.9873
-29.2475
-29.7857
-30.629
-31.7768
-33.0543
-33.6205
-30.8344
-21.0987
-17.9798
-16.3608
-11.373
-10.4424
-10.0444
-6.90793
-6.48365
-6.05825
-3.05505
-2.80077
-3.67116
-4.12312
-3.16429
-3.26444
-3.43245
-2.71527
-2.8073
-2.98302
-2.58104
-2.76645
-3.13046
-3.19178
-2.54306
-2.4687
-2.49278
-2.16586
-2.1897
-2.24739
-2.04734
-2.07231
-2.09197
-1.89006
-1.90479
-2.00608
-2.07547
-2.04227
-2.07564
-2.11153
-2.0894
-2.11336
-2.1396
-2.12825
-2.15058
-2.18092
-2.18655
-2.13771
-2.1312
-2.12906
-2.09453
-2.08953
-2.08512
-2.05438
-2.04817
-2.05197
-2.05545
-29.1824
-29.4722
-30.0803
-31.0623
-32.4785
-34.2675
-35.6672
-33.2729
-19.864
-17.4913
-16.8783
-10.1336
-9.97033
-10.3612
-5.99174
-6.17492
-6.30436
-2.00164
-2.08069
-3.49256
-4.25876
-2.75169
-3.07871
-3.48269
-2.3845
-2.6447
-2.9909
-2.33582
-2.63708
-3.17473
-3.3314
-2.36523
-2.37926
-2.50919
-2.02491
-2.12339
-2.25672
-1.95145
-2.03083
-2.10029
-1.79382
-1.83644
-1.98117
-2.07596
-2.00749
-2.05709
-2.1097
-2.06565
-2.10093
-2.13843
-2.11252
-2.143
-2.1854
-2.19772
-2.12486
-2.12539
-2.1314
-2.08229
-2.08333
-2.08457
-2.04115
-2.03716
-2.04439
-2.04944
-29.3433
-29.659
-30.3292
-31.4384
-33.117
-35.4629
-37.9595
-36.5697
-17.7173
-16.8688
-17.9089
-8.37203
-9.46982
-11.0805
-4.71723
-5.88434
-6.92744
-0.610469
-1.27452
-3.37841
-4.58758
-2.19671
-2.8943
-3.66217
-1.94932
-2.48159
-3.08602
-2.01757
-2.49256
-3.25062
-3.56328
-2.10941
-2.28349
-2.57858
-1.83911
-2.05689
-2.30402
-1.8261
-1.99202
-2.14113
-1.6712
-1.76205
-1.96172
-2.09072
-1.9639
-2.03906
-2.1164
-2.03598
-2.08882
-2.14285
-2.09254
-2.13469
-2.19232
-2.21586
-2.10613
-2.11934
-2.13844
-2.06619
-2.07737
-2.08794
-2.02503
-2.02563
-2.03731
-2.04412
-29.4717
-29.809
-30.5317
-31.7523
-33.6742
-36.5951
-40.4663
-41.1213
-14.2229
-16.1208
-19.7407
-5.83587
-8.94953
-12.4065
-2.89564
-5.61633
-8.11245
1.27909
-0.387106
-3.3412
-5.19045
-1.41884
-2.71222
-4.03238
-1.35342
-2.3197
-3.31086
-1.58961
-2.3315
-3.35913
-3.92654
-1.73444
-2.18208
-2.72771
-1.58476
-1.99086
-2.40725
-1.65466
-1.95621
-2.2297
-1.50899
-1.68207
-1.94876
-2.12529
-1.90602
-2.02162
-2.13539
-1.9969
-2.07711
-2.15539
-2.06599
-2.12545
-2.20166
-2.24384
-2.07836
-2.11305
-2.15246
-2.04409
-2.07169
-2.09702
-2.00451
-2.01368
-2.03088
-2.03956
-29.5696
-29.9239
-30.6886
-32.0007
-34.1336
-37.6089
-43.1035
-47.4926
-8.77179
-15.2774
-22.7752
-2.16401
-8.42615
-14.6242
-0.257974
-5.37645
-10.1163
3.89616
0.557383
-3.38707
-6.17888
-0.304093
-2.53597
-4.67929
-0.516609
-2.1629
-3.72449
-0.999882
-2.15624
-3.49694
-4.4761
-1.1825
-2.07773
-2.99392
-1.22803
-1.92686
-2.59155
-1.41347
-1.92397
-2.38718
-1.28835
-1.59856
-1.94295
-2.18731
-1.82609
-2.005
-2.17198
-1.94347
-2.066
-2.17961
-2.02965
-2.11533
-2.21307
-2.28577
-2.03708
-2.10663
-2.17664
-2.01294
-2.06637
-2.11429
-1.97738
-2.00161
-2.02527
-2.03582
-29.6393
-30.006
-30.8018
-32.1828
-34.4826
-38.4435
-45.7048
-56.4743
-0.528315
-14.402
-27.5601
3.14789
-7.92913
-18.1228
3.56972
-5.17237
-13.2891
7.56151
1.50315
-3.50903
-7.70502
1.30499
-2.37313
-5.72044
0.672806
-2.01843
-4.4072
-0.175856
-1.97586
-3.65341
-5.28798
-0.374004
-1.9763
-3.42815
-0.721729
-1.86782
-2.8912
-1.06966
-1.89623
-2.64238
-0.982873
-1.51618
-1.9441
-2.28716
-1.71342
-1.98983
-2.23342
-1.8688
-2.0559
-2.22037
-1.97905
-2.10476
-2.22563
-2.34735
-1.97624
-2.10039
-2.21536
-1.96856
-2.0616
-2.14314
-1.94057
-1.99004
-2.02071
-2.03294
-29.6832
-30.0579
-30.8738
-32.3002
-34.7139
-39.0393
-47.9837
-69.1525
11.6347
-13.606
-34.8244
10.7886
-7.507
-23.423
9.0953
-5.01547
-18.0989
12.7159
2.34597
-3.67698
-9.97416
3.62133
-2.23743
-7.31316
2.36698
-1.89856
-5.46587
0.98183
-1.81031
-3.80632
-6.4658
0.79857
-1.88826
-4.09825
-0.00142574
-1.81875
-3.35213
-0.578559
-1.87459
-3.03387
-0.556323
-1.44363
-1.95045
-2.43882
-1.55355
-1.97728
-2.32941
-1.76355
-2.04757
-2.2842
-1.90812
-2.09489
-2.2376
-2.43642
-1.88766
-2.09496
-2.27453
-1.90527
-2.0577
-2.18813
-1.88988
-1.98011
-2.01742
-2.03097
-29.7041
-30.0826
-30.9082
-32.3567
-34.8273
-39.3493
-49.4854
-86.9928
29.2116
-13.0671
-45.5186
21.6784
-7.23561
-31.2075
16.9936
-4.92299
-25.1602
19.954
2.91138
-3.82412
-13.2598
6.92705
-2.15128
-9.66382
4.76886
-1.82288
-7.03999
2.60685
-1.69598
-3.91628
-8.14869
2.47775
-1.8306
-5.09283
1.01886
-1.78773
-4.03453
0.119124
-1.86164
-3.6123
0.0401175
-1.39543
-1.9578
-2.661
-1.32738
-1.96937
-2.47279
-1.61535
-2.04236
-2.37969
-1.80884
-2.08798
-2.24606
-2.56361
-1.76065
-2.09139
-2.36198
-1.81559
-2.05528
-2.25529
-1.8197
-1.97366
-2.01567
-2.02997
)
;

boundaryField
{
    left
    {
        type            calculated;
        value           nonuniform List<scalar> 
32
(
-20.2426
-20.3202
-20.4677
-20.6769
-20.9404
-21.2518
-21.605
-21.9945
-22.4145
-22.8597
-23.3246
-23.8036
-24.291
-24.7814
-25.2691
-25.7487
-26.2148
-26.6626
-27.0876
-27.4859
-27.8541
-28.1898
-28.4911
-28.757
-28.9873
-29.1824
-29.3433
-29.4717
-29.5696
-29.6393
-29.6832
-29.7041
)
;
    }
    right
    {
        type            calculated;
        value           nonuniform List<scalar> 
32
(
-2.22536
-2.2239
-2.22116
-2.2173
-2.21248
-2.20686
-2.20055
-2.19367
-2.18632
-2.17859
-2.17054
-2.16224
-2.15375
-2.14513
-2.13641
-2.12764
-2.11887
-2.11014
-2.10152
-2.09304
-2.08479
-2.07682
-2.06922
-2.06207
-2.05545
-2.04944
-2.04412
-2.03956
-2.03582
-2.03294
-2.03097
-2.02997
)
;
    }
    interface
    {
        type            calculated;
        value           nonuniform List<scalar> 
64
(
-29.709
-30.0885
-30.9164
-32.3703
-34.8549
-39.4282
-49.9729
-97.4131
39.5657
-12.8888
-51.8572
28.0666
-7.14906
-35.8173
21.6318
-4.89544
-29.3407
24.179
3.09775
-3.88135
-15.1957
8.86731
-2.12404
-11.0578
6.17561
-1.79906
-7.97557
3.5553
-1.65739
-3.95432
-9.13627
3.46424
-1.81196
-5.68373
1.61624
-1.77796
-4.43961
0.528031
-1.85774
-3.95542
0.387788
-1.37966
-1.96101
-2.79239
-1.19502
-1.96689
-2.55815
-1.52876
-2.04073
-2.43658
-1.75097
-2.08562
-2.24897
-2.63826
-1.68602
-2.09024
-2.41389
-1.7631
-2.05454
-2.29527
-1.77893
-1.97159
-2.01521
-2.02973
)
;
    }
    bottom
    {
        type            calculated;
        value           nonuniform List<scalar> 
64
(
-20.2224
-20.1266
-19.9362
-19.6533
-19.2816
-18.8262
-18.2937
-17.6926
-17.0328
-16.3253
-15.5821
-14.8151
-14.0362
-13.2565
-12.486
-11.7332
-11.0055
-10.3084
-9.64607
-9.02134
-8.43573
-7.88971
-7.38292
-6.9143
-6.4823
-6.08503
-5.72039
-5.38617
-5.08017
-4.8002
-4.54422
-4.31031
-4.09671
-3.90183
-3.72422
-3.56257
-3.4157
-3.28252
-3.16201
-3.05322
-2.95526
-2.86725
-2.78838
-2.71785
-2.6549
-2.59881
-2.54889
-2.50452
-2.46509
-2.43009
-2.39901
-2.37144
-2.347
-2.32538
-2.30632
-2.28958
-2.27501
-2.26246
-2.25185
-2.24308
-2.23611
-2.23092
-2.22746
-2.22574
)
;
    }
    defaultFaces
    {
        type            empty;
    }
}


// ************************************************************************* //
