/*--------------------------------*- C++ -*----------------------------------*\
| =========                 |                                                 |
| \\      /  F ield         | OpenFOAM: The Open Source CFD Toolbox           |
|  \\    /   O peration     | Version:  5.x                                   |
|   \\  /    A nd           | Web:      www.OpenFOAM.org                      |
|    \\/     M anipulation  |                                                 |
\*---------------------------------------------------------------------------*/
FoamFile
{
    version     2.0;
    format      ascii;
    class       volScalarField;
    location    "6";
    object      T;
}
// * * * * * * * * * * * * * * * * * * * * * * * * * * * * * * * * * * * * * //

dimensions      [0 0 0 1 0 0 0];

internalField   nonuniform List<scalar> 
2048
(
9.85472
9.8554
9.85677
9.85881
9.86148
9.86475
9.86857
9.87289
9.87763
9.88271
9.88805
9.89356
9.89916
9.90476
9.9103
9.91571
9.92093
9.92594
9.9307
9.93519
9.9394
9.94332
9.94696
9.95033
9.95343
9.95628
9.9589
9.9613
9.9635
9.96551
9.96735
9.96903
9.97057
9.97197
9.97324
9.97441
9.97546
9.97642
9.97728
9.97806
9.97877
9.9794
9.97997
9.98047
9.98093
9.98133
9.98169
9.98201
9.98229
9.98254
9.98276
9.98296
9.98314
9.98329
9.98343
9.98355
9.98366
9.98375
9.98382
9.98389
9.98394
9.98397
9.984
9.98401
9.56994
9.57198
9.57603
9.58206
9.58999
9.5997
9.61106
9.62388
9.63796
9.65306
9.66892
9.68528
9.70189
9.71851
9.73492
9.75095
9.76644
9.78127
9.79535
9.80863
9.82107
9.83267
9.84342
9.85337
9.86253
9.87096
9.87869
9.88577
9.89226
9.89819
9.90362
9.90858
9.9131
9.91723
9.921
9.92442
9.92754
9.93036
9.93291
9.93522
9.93729
9.93916
9.94083
9.94232
9.94365
9.94484
9.9459
9.94684
9.94767
9.94841
9.94907
9.94965
9.95017
9.95063
9.95103
9.95139
9.95169
9.95196
9.95219
9.95237
9.95252
9.95263
9.9527
9.95274
9.29607
9.29942
9.30608
9.31599
9.32902
9.345
9.3637
9.38482
9.40801
9.43287
9.45899
9.48591
9.51323
9.54055
9.56751
9.59381
9.6192
9.64349
9.66654
9.68824
9.70857
9.72749
9.74503
9.76124
9.77617
9.78989
9.80247
9.814
9.82455
9.8342
9.84303
9.85109
9.85845
9.86517
9.87129
9.87687
9.88193
9.88652
9.89067
9.89442
9.89779
9.90082
9.90354
9.90596
9.90812
9.91005
9.91176
9.91329
9.91464
9.91584
9.91691
9.91785
9.91869
9.91943
9.92009
9.92066
9.92116
9.9216
9.92196
9.92227
9.92251
9.92269
9.92281
9.92286
9.03186
9.03649
9.04569
9.05939
9.07743
9.09956
9.12548
9.15478
9.18696
9.22145
9.25767
9.295
9.33283
9.37062
9.40788
9.44417
9.47917
9.5126
9.54428
9.57408
9.60195
9.62786
9.65187
9.67403
9.69442
9.71315
9.73032
9.74604
9.76043
9.77358
9.78561
9.7966
9.80664
9.8158
9.82415
9.83174
9.83865
9.8449
9.85056
9.85567
9.86026
9.86439
9.86808
9.87137
9.87431
9.87693
9.87926
9.88132
9.88316
9.88479
9.88623
9.88752
9.88865
9.88966
9.89055
9.89134
9.89202
9.89261
9.89311
9.89352
9.89385
9.8941
9.89426
9.89434
8.77628
8.78215
8.79385
8.81128
8.83424
8.86246
8.89555
8.93298
8.9741
9.01819
9.06446
9.11211
9.16034
9.20846
9.25583
9.3019
9.34625
9.38855
9.42856
9.46614
9.50122
9.53381
9.56396
9.59175
9.6173
9.64075
9.66224
9.6819
9.69989
9.71633
9.73137
9.7451
9.75765
9.7691
9.77954
9.78904
9.79767
9.80549
9.81256
9.81894
9.82467
9.82982
9.83442
9.83853
9.84219
9.84544
9.84834
9.85091
9.85319
9.85521
9.85701
9.8586
9.86002
9.86127
9.86238
9.86336
9.86421
9.86495
9.86557
9.86609
9.8665
9.86681
9.86701
9.86712
8.52848
8.53558
8.54972
8.57081
8.59865
8.63292
8.67316
8.71873
8.76884
8.82257
8.87891
8.93687
8.99547
9.05384
9.11118
9.16685
9.22034
9.27125
9.3193
9.36436
9.40634
9.44528
9.48125
9.51436
9.54478
9.57266
9.59819
9.62154
9.64289
9.66241
9.68024
9.69655
9.71144
9.72503
9.73742
9.7487
9.75895
9.76823
9.77662
9.78418
9.79098
9.79708
9.80252
9.80738
9.8117
9.81555
9.81896
9.82199
9.82468
9.82706
9.82918
9.83106
9.83273
9.83421
9.83552
9.83668
9.83769
9.83856
9.83931
9.83992
9.84041
9.84078
9.84102
9.84115
8.28777
8.29606
8.31259
8.33729
8.36995
8.41026
8.45768
8.51146
8.57065
8.63411
8.70062
8.76896
8.83794
8.90651
8.97374
9.03887
9.1013
9.16058
9.21642
9.26865
9.31723
9.3622
9.40367
9.44179
9.47677
9.5088
9.5381
9.56488
9.58936
9.61173
9.63217
9.65086
9.66794
9.68353
9.69774
9.71068
9.72243
9.73308
9.7427
9.75136
9.75914
9.76611
9.77234
9.77788
9.78281
9.78719
9.79107
9.79452
9.79758
9.80029
9.8027
9.80483
9.80674
9.80843
9.80992
9.81124
9.8124
9.8134
9.81426
9.81497
9.81553
9.81596
9.81624
9.81638
8.05358
8.06302
8.08189
8.11012
8.14757
8.1939
8.24855
8.31065
8.37905
8.45241
8.52925
8.60808
8.68751
8.76628
8.84333
8.91779
8.98898
9.05642
9.11978
9.1789
9.23376
9.28444
9.3311
9.37392
9.41316
9.44905
9.48185
9.51181
9.53918
9.5642
9.58706
9.60796
9.62706
9.64451
9.66042
9.6749
9.68805
9.69996
9.71072
9.7204
9.72909
9.73687
9.7438
9.74997
9.75545
9.76031
9.76462
9.76844
9.77183
9.77483
9.7775
9.77988
9.78199
9.78386
9.78553
9.787
9.7883
9.78942
9.79038
9.79118
9.79181
9.79229
9.79261
9.79276
7.82546
7.83601
7.85713
7.88882
7.93098
7.98333
8.04527
8.11582
8.19365
8.27713
8.36449
8.45398
8.54394
8.63294
8.71977
8.80345
8.88325
8.95862
9.02924
9.09497
9.1558
9.21187
9.26339
9.31061
9.35381
9.39328
9.42932
9.46222
9.49225
9.5197
9.54479
9.56773
9.58871
9.60788
9.62536
9.64128
9.65573
9.66881
9.68062
9.69124
9.70076
9.70927
9.71685
9.72359
9.72957
9.73486
9.73955
9.7437
9.74738
9.75065
9.75355
9.75613
9.75843
9.76047
9.76229
9.76391
9.76533
9.76656
9.76762
9.7685
9.7692
9.76973
9.77008
9.77026
7.60305
7.61465
7.63792
7.67295
7.71975
7.7781
7.8474
7.92658
8.01407
8.10795
8.20609
8.30642
8.40704
8.50631
8.60288
8.69569
8.78392
8.86702
8.94465
9.01668
9.08317
9.14432
9.20039
9.2517
9.29857
9.34134
9.38036
9.41595
9.44843
9.4781
9.50523
9.53006
9.55277
9.57354
9.59248
9.60972
9.62537
9.63954
9.65232
9.6638
9.67409
9.68327
9.69143
9.69868
9.70509
9.71077
9.71579
9.72024
9.72418
9.72767
9.73077
9.73354
9.736
9.7382
9.74016
9.7419
9.74344
9.74478
9.74593
9.74689
9.74765
9.74823
9.74862
9.74881
7.38608
7.39866
7.42396
7.46218
7.51349
7.57778
7.65452
7.74253
7.83999
7.94458
8.0538
8.16521
8.27662
8.38622
8.4925
8.59433
8.69085
8.78145
8.86582
8.94386
9.0157
9.0816
9.14191
9.197
9.24726
9.29307
9.33481
9.37285
9.40756
9.43926
9.46826
9.49482
9.51913
9.54137
9.56166
9.58013
9.5969
9.61206
9.62573
9.63801
9.64899
9.65878
9.66746
9.67516
9.68196
9.68798
9.69329
9.69799
9.70215
9.70584
9.70912
9.71204
9.71466
9.71699
9.71908
9.72094
9.72259
9.72403
9.72526
9.7263
9.72712
9.72775
9.72816
9.72837
7.17434
7.18781
7.21497
7.2562
7.31185
7.38203
7.46627
7.56334
7.67111
7.7868
7.90743
8.03017
8.15253
8.27249
8.38846
8.49921
8.60384
8.70174
8.79259
8.87633
8.95319
9.02352
9.08775
9.14633
9.1997
9.24829
9.29251
9.33278
9.36949
9.40304
9.43374
9.46188
9.48767
9.51127
9.53281
9.55242
9.57021
9.5863
9.60079
9.61379
9.6254
9.63573
9.64488
9.65298
9.66012
9.66642
9.67199
9.67691
9.68126
9.68511
9.68854
9.6916
9.69434
9.6968
9.699
9.70097
9.70272
9.70425
9.70557
9.70668
9.70756
9.70823
9.70868
9.7089
6.9677
6.98195
7.01079
7.05477
7.11454
7.19048
7.28229
7.38869
7.50716
7.63439
7.76681
7.90115
8.03461
8.16498
8.29058
8.41013
8.52272
8.6277
8.72475
8.81389
8.89543
8.96986
9.03771
9.09949
9.15571
9.20682
9.25328
9.29556
9.33408
9.36928
9.40152
9.43112
9.45827
9.48312
9.50583
9.52648
9.54522
9.56216
9.5774
9.59106
9.60324
9.61406
9.62362
9.63206
9.63949
9.64604
9.65182
9.65692
9.66143
9.66543
9.66898
9.67216
9.67501
9.67757
9.67987
9.68194
9.68379
9.68541
9.68681
9.68798
9.68893
9.68964
9.69012
9.69036
6.76607
6.78097
6.81124
6.85769
6.92129
7.00281
7.10224
7.21825
7.34791
7.48717
7.6318
7.77803
7.92273
8.06353
8.1987
8.32693
8.44729
8.55914
8.66212
8.75632
8.84221
8.92042
8.99158
9.05628
9.11508
9.16847
9.21696
9.26103
9.30116
9.33783
9.37147
9.40239
9.4308
9.45682
9.4806
9.50223
9.52184
9.53955
9.55548
9.56974
9.58245
9.5937
9.60362
9.61234
9.62002
9.62678
9.63273
9.63798
9.64262
9.64673
9.65039
9.65366
9.6566
9.65926
9.66166
9.66382
9.66575
9.66746
9.66894
9.67018
9.67118
9.67194
9.67244
9.67269
6.5694
6.58481
6.61624
6.66479
6.73187
6.81872
6.92577
7.05173
7.19315
7.34501
7.50229
7.66069
7.81674
7.96796
8.11263
8.2494
8.37737
8.49587
8.6045
8.70343
8.79331
8.87496
8.94913
9.01649
9.07763
9.13308
9.18337
9.22902
9.27057
9.30855
9.34344
9.37558
9.40514
9.43226
9.45703
9.47956
9.49998
9.5184
9.53496
9.54977
9.56294
9.57457
9.58479
9.59377
9.60164
9.60857
9.61465
9.62002
9.62477
9.62897
9.63271
9.63606
9.63908
9.64181
9.6443
9.64655
9.64857
9.65036
9.65191
9.65322
9.65427
9.65507
9.65561
9.65587
6.37769
6.39345
6.42572
6.47595
6.54604
6.63791
6.75255
6.88885
7.04269
7.20778
7.37817
7.54904
7.71653
7.87813
8.03219
8.17735
8.31275
8.4377
8.5517
8.65499
8.74849
8.83327
8.91016
8.9799
9.04316
9.10046
9.15234
9.1994
9.24217
9.28128
9.31728
9.35054
9.3812
9.40933
9.43503
9.45839
9.47954
9.49862
9.51575
9.53106
9.54465
9.55661
9.5671
9.57627
9.5843
9.59135
9.59755
9.60301
9.60783
9.6121
9.6159
9.61931
9.62239
9.6252
9.62776
9.63009
9.63219
9.63406
9.63569
9.63706
9.63817
9.63901
9.63957
9.63985
6.19095
6.20688
6.23965
6.29107
6.36364
6.46009
6.58223
6.72929
6.89637
7.07541
7.25938
7.443
7.62198
7.79386
7.95719
8.11057
8.25321
8.38445
8.50353
8.61079
8.70753
8.7951
8.87443
8.94632
9.01149
9.07043
9.12372
9.17199
9.21581
9.25587
9.29286
9.32717
9.35885
9.38793
9.4145
9.43863
9.46045
9.48012
9.49778
9.51354
9.52751
9.53977
9.55046
9.55978
9.56793
9.57507
9.58135
9.58688
9.59175
9.59607
9.59992
9.60337
9.6065
9.60936
9.612
9.61441
9.61659
9.61853
9.62023
9.62167
9.62284
9.62371
9.6243
9.62459
6.00923
6.02514
6.05803
6.11009
6.1845
6.28495
6.41442
6.57276
6.75409
6.94785
7.14586
7.34252
7.53297
7.71497
7.88743
8.04883
8.19853
8.33592
8.45981
8.5706
8.67016
8.76024
8.84174
8.91555
8.98245
9.04284
9.09735
9.14667
9.19135
9.23219
9.27005
9.30534
9.33799
9.36796
9.39536
9.42019
9.44262
9.46284
9.48097
9.49714
9.51147
9.52398
9.53482
9.54424
9.55248
9.55969
9.56601
9.57158
9.57649
9.58084
9.58472
9.58819
9.59135
9.59427
9.59697
9.59945
9.60171
9.60373
9.6055
9.60701
9.60823
9.60915
9.60976
9.61006
5.83259
5.84827
5.88088
5.93299
6.00848
6.11223
6.24874
6.41892
6.61579
6.8251
7.03755
7.24755
7.44939
7.64126
7.82273
7.99191
8.14847
8.29197
8.42036
8.5342
8.63615
8.72846
8.81187
8.88736
8.95585
9.01753
9.07307
9.12329
9.16865
9.21009
9.2487
9.28496
9.31852
9.34934
9.37752
9.40299
9.42597
9.4467
9.46526
9.4818
9.49645
9.50918
9.52013
9.52961
9.53789
9.54513
9.55148
9.55708
9.56201
9.56637
9.57025
9.57374
9.57692
9.57987
9.58264
9.5852
9.58753
9.58963
9.59147
9.59304
9.59432
9.59528
9.59591
9.59622
5.66108
5.67634
5.70826
5.75977
5.83549
5.94165
6.08473
6.26739
6.48148
6.7072
6.93438
7.15809
7.3711
7.57249
7.7629
7.93956
8.10276
8.25244
8.38505
8.50136
8.60522
8.69954
8.78462
8.86158
8.93154
8.99433
9.05074
9.10174
9.1476
9.18942
9.22867
9.2659
9.30037
9.33197
9.3609
9.38696
9.41042
9.43163
9.45056
9.46744
9.48242
9.49533
9.50633
9.51581
9.52412
9.53137
9.53772
9.54333
9.54825
9.5526
9.55649
9.55997
9.56315
9.56614
9.56898
9.57161
9.57402
9.57619
9.5781
9.57973
9.58107
9.58207
9.58273
9.58304
5.49476
5.50942
5.54023
5.59046
5.66546
5.77295
5.92192
6.11774
6.35128
6.59424
6.83625
7.07415
7.29801
7.50838
7.70776
7.89154
8.0611
8.21721
8.35375
8.47184
8.57708
8.67329
8.75978
8.83798
8.90938
8.97312
9.0302
9.08191
9.12807
9.17005
9.20983
9.24811
9.28344
9.31577
9.34545
9.37203
9.3959
9.41756
9.43683
9.45401
9.46931
9.48237
9.49336
9.5028
9.51111
9.51834
9.52467
9.53028
9.53519
9.53952
9.5434
9.54686
9.55002
9.55303
9.55595
9.55865
9.56113
9.56339
9.56536
9.56705
9.56846
9.5695
9.57017
9.57049
5.33369
5.34755
5.37686
5.42513
5.49838
5.60589
5.75974
5.96941
6.22547
6.48635
6.74298
6.99583
7.22997
7.44861
7.65719
7.84758
8.02312
8.18624
8.32636
8.44539
8.55143
8.64953
8.73718
8.81635
8.88925
8.95375
9.01131
9.06372
9.10999
9.15182
9.19202
9.2315
9.26768
9.30065
9.33111
9.35813
9.38231
9.40443
9.42398
9.44142
9.45709
9.47027
9.48117
9.49052
9.49882
9.50601
9.51229
9.5179
9.52278
9.52707
9.53093
9.53436
9.53748
9.54052
9.54352
9.54629
9.54883
9.55118
9.55322
9.55497
9.55645
9.55753
9.55822
9.55854
5.17791
5.19082
5.21824
5.26387
5.33427
5.44028
5.5976
5.82171
6.10456
6.38372
6.65427
6.92331
7.16686
7.39271
7.61114
7.80742
7.98838
8.15953
8.30285
8.42173
8.52791
8.62813
8.71664
8.79647
8.87106
8.93611
8.99389
9.04711
9.09325
9.13461
9.17508
9.21603
9.25301
9.2865
9.31783
9.34519
9.36959
9.39221
9.41197
9.4296
9.44573
9.45898
9.46971
9.47892
9.48722
9.49433
9.50055
9.50616
9.51098
9.51522
9.51907
9.52244
9.52551
9.52855
9.53167
9.5345
9.5371
9.53955
9.54165
9.54345
9.54501
9.54613
9.54683
9.54715
5.02746
5.03926
5.06446
5.1068
5.17323
5.27598
5.43483
5.67368
5.98937
6.28656
6.56961
6.8569
7.10857
7.34013
7.56966
7.77079
7.95629
8.1372
8.28319
8.40058
8.5061
8.60902
8.69801
8.77806
8.85477
8.92009
8.97777
9.03204
9.0778
9.11825
9.15883
9.20171
9.23938
9.27323
9.30559
9.33317
9.35763
9.38086
9.40073
9.41848
9.43519
9.44848
9.45894
9.46792
9.47626
9.48327
9.48938
9.49502
9.49978
9.50393
9.50779
9.51109
9.51406
9.51711
9.52037
9.52326
9.52591
9.52847
9.53062
9.53247
9.53413
9.53529
9.53598
9.53629
4.88234
4.8929
4.91559
4.95405
5.01538
5.11293
5.27072
5.52399
5.88117
6.19516
6.4882
6.79717
7.05495
7.29005
7.533
7.73741
7.92609
8.11955
8.26741
8.38162
8.48552
8.59222
8.68114
8.7608
8.84039
8.90558
8.96271
9.01852
9.06359
9.10259
9.14305
9.18856
9.22676
9.26069
9.2944
9.322
9.34632
9.37036
9.39021
9.40796
9.42548
9.43875
9.44879
9.45748
9.46591
9.4728
9.47876
9.48447
9.48913
9.49317
9.49706
9.50026
9.50311
9.50614
9.5096
9.51254
9.51521
9.51792
9.5201
9.52198
9.52377
9.52497
9.52565
9.52595
4.74254
4.75178
4.7717
4.80577
4.86094
4.95119
5.10455
5.37081
5.78188
6.10978
6.40882
6.74499
7.00587
7.24141
7.50167
7.70702
7.89675
8.10707
8.25558
8.36447
8.46558
8.57788
8.6659
8.74431
8.82804
8.89248
8.94845
9.00664
9.0506
9.08748
9.12746
9.17669
9.21511
9.24872
9.28429
9.31163
9.33553
9.36073
9.38036
9.39792
9.4166
9.42975
9.43921
9.44752
9.45618
9.46287
9.46863
9.47448
9.479
9.4829
9.48687
9.48994
9.49263
9.49562
9.49935
9.50231
9.50498
9.50788
9.51008
9.51197
9.51393
9.51515
9.51581
9.51609
4.60804
4.61589
4.63286
4.66211
4.71016
4.79095
4.93568
5.21152
5.69428
6.03068
6.32962
6.70176
6.96118
7.19271
7.47657
7.67934
7.86687
8.10061
8.24778
8.34877
8.44551
8.56631
8.65218
8.72808
8.81794
8.8807
8.9346
8.99654
9.03879
9.07276
9.11175
9.1663
9.20439
9.23711
9.27535
9.30203
9.32511
9.35201
9.37112
9.38822
9.4086
9.42148
9.43016
9.43797
9.44704
9.45346
9.45893
9.46505
9.46938
9.47307
9.4772
9.48012
9.48257
9.48549
9.48962
9.49256
9.49518
9.49834
9.50052
9.50239
9.50459
9.50582
9.50643
9.50668
4.47879
4.4852
4.4991
4.52321
4.56332
4.63254
4.76358
5.04247
5.62235
5.95808
6.24797
6.66953
6.9207
7.1419
7.45912
7.6541
7.83456
8.10142
8.24404
8.3341
8.42438
8.55807
8.63987
8.71142
8.81047
8.87015
8.92072
8.98847
9.02818
9.05827
9.09546
9.1577
9.19457
9.22555
9.26774
9.29314
9.31483
9.3443
9.36245
9.37868
9.40157
9.41391
9.42158
9.42873
9.43852
9.44454
9.4496
9.45618
9.46023
9.46364
9.46805
9.47075
9.47292
9.4757
9.48042
9.48326
9.48576
9.4893
9.4914
9.4932
9.49573
9.49694
9.4975
9.49771
4.35472
4.35967
4.37043
4.3892
4.42075
4.47649
4.58809
4.85856
5.57161
5.89204
6.16016
6.65131
6.8842
7.08622
7.45147
7.63104
7.79728
8.11139
8.24436
8.32005
8.40097
8.55402
8.62885
8.69346
8.80624
8.86075
8.90617
8.98283
9.01873
9.04389
9.07804
9.15135
9.18562
9.21368
9.2617
9.28491
9.30443
9.33776
9.3543
9.36906
9.39562
9.40701
9.41341
9.4197
9.43065
9.43608
9.44058
9.44788
9.45152
9.45455
9.45944
9.46184
9.46365
9.4662
9.47175
9.4744
9.47667
9.48077
9.48271
9.48436
9.48735
9.48851
9.48898
9.48915
4.23574
4.23924
4.24686
4.26019
4.28278
4.32349
4.40952
4.65277
5.54964
5.83242
6.06111
6.65134
6.85139
7.02195
7.45671
7.60989
7.75164
8.13317
8.24854
8.30626
8.37371
8.55545
8.61901
8.67303
8.80614
8.85236
8.89015
8.98019
9.01043
9.02954
9.05873
9.14792
9.17748
9.20097
9.2576
9.27729
9.29355
9.33265
9.34663
9.35907
9.39095
9.40076
9.40561
9.41076
9.4235
9.42806
9.43175
9.4402
9.44324
9.44572
9.45137
9.45337
9.45473
9.45692
9.46367
9.46594
9.46787
9.47275
9.47442
9.47582
9.47947
9.48049
9.48085
9.48098
4.12175
4.12382
4.12833
4.13624
4.14973
4.17437
4.22905
4.41558
5.56659
5.77875
5.94404
6.6755
6.82183
6.94415
7.47913
7.59036
7.69317
8.17045
8.25609
8.29248
8.34057
8.56411
8.61018
8.64861
8.81141
8.84487
8.87161
8.98136
9.00319
9.01519
9.03656
9.14833
9.17008
9.18678
9.25597
9.27022
9.28174
9.32932
9.33939
9.34832
9.38786
9.39509
9.39813
9.40173
9.41717
9.42044
9.42303
9.43318
9.43536
9.4371
9.44388
9.4453
9.44615
9.44776
9.45621
9.45788
9.45927
9.46529
9.4665
9.46752
9.4721
9.47287
9.47309
9.47317
4.01263
4.01331
4.01479
4.01741
4.02187
4.03008
4.04902
4.13423
5.63588
5.73009
5.80008
6.73168
6.79493
6.84642
7.52453
7.57218
7.61608
8.22824
8.26611
8.27864
8.29896
8.58244
8.60218
8.61822
8.82376
8.83808
8.84918
8.98745
8.99681
9.00094
9.01025
9.15381
9.16328
9.17024
9.25752
9.26362
9.2684
9.32826
9.33254
9.33631
9.38673
9.3899
9.39095
9.39244
9.41181
9.41319
9.41425
9.42693
9.42785
9.42856
9.43702
9.43762
9.43791
9.43861
9.44947
9.4502
9.45078
9.45843
9.45895
9.45938
9.46526
9.46561
9.46568
9.46571
)
;

boundaryField
{
    left
    {
        type            zeroGradient;
    }
    right
    {
        type            zeroGradient;
    }
    interface
    {
        type            fixedValue;
        value           nonuniform List<scalar> 
64
(
3.95927
3.95927
3.95927
3.95927
3.95927
3.95927
3.95927
3.95927
5.70694
5.70694
5.70694
6.78209
6.78209
6.78209
7.56338
7.56338
7.56338
8.27167
8.27167
8.27167
8.27167
8.59836
8.59836
8.59836
8.83485
8.83485
8.83485
8.99384
8.99384
8.99384
8.99384
9.16003
9.16003
9.16003
9.26043
9.26043
9.26043
9.3292
9.3292
9.3292
9.38742
9.38742
9.38742
9.38742
9.40966
9.40966
9.40966
9.42419
9.42419
9.42419
9.43387
9.43387
9.43387
9.43387
9.44644
9.44644
9.44644
9.45526
9.45526
9.45526
9.46207
9.46207
9.46207
9.46207
)
;
    }
    bottom
    {
        type            fixedValue;
        value           uniform 10;
    }
    defaultFaces
    {
        type            empty;
    }
}


// ************************************************************************* //
