/*--------------------------------*- C++ -*----------------------------------*\
| =========                 |                                                 |
| \\      /  F ield         | OpenFOAM: The Open Source CFD Toolbox           |
|  \\    /   O peration     | Version:  5.x                                   |
|   \\  /    A nd           | Web:      www.OpenFOAM.org                      |
|    \\/     M anipulation  |                                                 |
\*---------------------------------------------------------------------------*/
FoamFile
{
    version     2.0;
    format      ascii;
    class       volScalarField;
    location    "2.2";
    object      gradTy;
}
// * * * * * * * * * * * * * * * * * * * * * * * * * * * * * * * * * * * * * //

dimensions      [0 -1 0 1 0 0 0];

internalField   nonuniform List<scalar> 
2048
(
-21.8984
-21.8182
-21.6589
-21.4225
-21.1125
-20.7335
-20.2918
-19.7951
-19.2525
-18.6739
-18.07
-17.4515
-16.8286
-16.2107
-15.6062
-15.0219
-14.4636
-13.9352
-13.4398
-12.9787
-12.5527
-12.1614
-11.8038
-11.4785
-11.1836
-10.917
-10.6767
-10.4604
-10.2661
-10.0915
-9.93497
-9.79456
-9.66871
-9.55595
-9.455
-9.36467
-9.28393
-9.21183
-9.14753
-9.09028
-9.03936
-8.99415
-8.95406
-8.91856
-8.88715
-8.85939
-8.83487
-8.8132
-8.79406
-8.77715
-8.7622
-8.74897
-8.73727
-8.72693
-8.71781
-8.7098
-8.7028
-8.69675
-8.69161
-8.68735
-8.68395
-8.68139
-8.67969
-8.67884
-21.963
-21.882
-21.721
-21.4819
-21.1679
-20.7839
-20.3359
-19.8319
-19.2811
-18.694
-18.0815
-17.4546
-16.824
-16.1994
-15.5892
-15.0004
-14.4387
-13.908
-13.4112
-12.9497
-12.5239
-12.1334
-11.7769
-11.4531
-11.1598
-10.895
-10.6564
-10.4419
-10.2491
-10.0761
-9.92098
-9.78186
-9.65718
-9.54547
-9.44545
-9.35596
-9.27596
-9.20454
-9.14086
-9.08415
-9.03374
-8.989
-8.94934
-8.91423
-8.88318
-8.85575
-8.83152
-8.81013
-8.79123
-8.77453
-8.75976
-8.74669
-8.73513
-8.7249
-8.71587
-8.70793
-8.70098
-8.69497
-8.68985
-8.6856
-8.68221
-8.67966
-8.67795
-8.67711
-22.0858
-22.0033
-21.8391
-21.595
-21.2738
-20.8801
-20.4202
-19.9022
-19.3357
-18.732
-18.1029
-17.46
-16.8148
-16.1772
-15.5562
-14.9589
-14.3908
-13.8559
-13.3566
-12.8943
-12.469
-12.08
-11.7259
-11.4049
-11.1148
-10.8533
-10.6181
-10.4068
-10.2171
-10.0471
-9.89461
-9.75794
-9.63545
-9.52571
-9.42745
-9.33953
-9.26095
-9.19079
-9.12826
-9.0726
-9.02315
-8.97928
-8.94043
-8.90606
-8.8757
-8.84889
-8.82522
-8.80433
-8.78588
-8.76958
-8.75517
-8.7424
-8.7311
-8.72108
-8.71222
-8.7044
-8.69755
-8.69161
-8.68653
-8.6823
-8.67892
-8.67637
-8.67466
-8.67382
-22.2601
-22.1756
-22.0072
-21.7561
-21.4249
-21.0178
-20.5408
-20.0025
-19.4134
-18.7857
-18.1324
-17.4665
-16.8001
-16.1442
-15.5079
-14.8985
-14.3215
-13.7808
-13.2783
-12.8151
-12.3908
-12.0042
-11.6536
-11.3368
-11.0512
-10.7945
-10.5641
-10.3574
-10.1723
-10.0063
-9.85767
-9.72444
-9.60504
-9.49807
-9.40226
-9.31654
-9.23992
-9.17153
-9.1106
-9.0564
-9.00829
-8.96565
-8.92794
-8.89461
-8.8652
-8.83926
-8.81639
-8.79621
-8.7784
-8.76266
-8.74874
-8.7364
-8.72545
-8.71573
-8.7071
-8.69947
-8.69275
-8.68689
-8.68187
-8.67767
-8.67429
-8.67174
-8.67003
-8.66918
-22.4801
-22.3933
-22.22
-21.9607
-21.6173
-21.1932
-20.6946
-20.1303
-19.5119
-18.853
-18.1684
-17.4726
-16.7792
-16.0999
-15.4442
-14.8198
-14.232
-13.6842
-13.1782
-12.7143
-12.2916
-11.9084
-11.5625
-11.2511
-10.9716
-10.721
-10.4967
-10.296
-10.1165
-9.95576
-9.81186
-9.68293
-9.56737
-9.46381
-9.37104
-9.28802
-9.21382
-9.14762
-9.08867
-9.03628
-8.98983
-8.94872
-8.91241
-8.88038
-8.85217
-8.82732
-8.80543
-8.78614
-8.76912
-8.75408
-8.74077
-8.72896
-8.71845
-8.70909
-8.70076
-8.69334
-8.68678
-8.68103
-8.67607
-8.67189
-8.66852
-8.66596
-8.66423
-8.66338
-22.7404
-22.6514
-22.473
-22.2048
-21.8476
-21.4039
-20.8794
-20.2835
-19.6291
-18.932
-18.209
-17.4769
-16.7508
-16.0434
-15.365
-14.7231
-14.1228
-13.5672
-13.0576
-12.5935
-12.1733
-11.7947
-11.4548
-11.1503
-10.8781
-10.635
-10.418
-10.2244
-10.0515
-9.89701
-9.75872
-9.63481
-9.52372
-9.42411
-9.33484
-9.25494
-9.18354
-9.11986
-9.06319
-9.01289
-8.96835
-8.92902
-8.89435
-8.86384
-8.83702
-8.81344
-8.7927
-8.77445
-8.75835
-8.74413
-8.73153
-8.72033
-8.71034
-8.70141
-8.69341
-8.68624
-8.67985
-8.67421
-8.66931
-8.66515
-8.66177
-8.65919
-8.65744
-8.65658
-23.0363
-22.9453
-22.7622
-22.4852
-22.1134
-21.6479
-21.0937
-20.4607
-19.7636
-19.0209
-18.2524
-17.4775
-16.7134
-15.9738
-15.2696
-14.6082
-13.9944
-13.4307
-12.9178
-12.4542
-12.0378
-11.6651
-11.3325
-11.0362
-10.7727
-10.5383
-10.3298
-10.1444
-9.97915
-9.83164
-9.69968
-9.5814
-9.47528
-9.38004
-9.29464
-9.21817
-9.14985
-9.08894
-9.0348
-8.98681
-8.9444
-8.90704
-8.87421
-8.8454
-8.82013
-8.79798
-8.77854
-8.76144
-8.74638
-8.73307
-8.72127
-8.71075
-8.70134
-8.69288
-8.68524
-8.67835
-8.67215
-8.66661
-8.66175
-8.6576
-8.65419
-8.65158
-8.64981
-8.64892
-23.3632
-23.2708
-23.084
-22.7991
-22.4127
-21.9239
-21.3366
-20.6609
-19.9141
-19.1181
-18.2968
-17.4728
-16.6654
-15.89
-15.1574
-14.4749
-13.847
-13.2754
-12.7597
-12.2979
-11.8866
-11.5213
-11.1975
-10.9109
-10.6572
-10.4327
-10.2339
-10.0575
-9.9008
-9.76105
-9.63603
-9.52388
-9.42311
-9.33256
-9.25129
-9.17849
-9.11344
-9.05551
-9.00406
-8.95856
-8.91845
-8.88323
-8.85238
-8.82542
-8.80187
-8.78127
-8.76323
-8.7474
-8.73346
-8.72114
-8.7102
-8.70043
-8.69164
-8.68369
-8.67644
-8.66983
-8.66382
-8.65839
-8.65356
-8.64939
-8.64594
-8.64327
-8.64145
-8.64054
-23.7165
-23.6238
-23.4349
-23.1439
-22.744
-22.2313
-21.6076
-20.8836
-20.0795
-19.2221
-18.3403
-17.4607
-16.6054
-15.7906
-15.0276
-14.3232
-13.6809
-13.1017
-12.5844
-12.1258
-11.7212
-11.365
-11.0516
-10.776
-10.5335
-10.3199
-10.1317
-9.96533
-9.81786
-9.68652
-9.56896
-9.46331
-9.36817
-9.28252
-9.20554
-9.13656
-9.07495
-9.02011
-8.9715
-8.9286
-8.89091
-8.85795
-8.82924
-8.80426
-8.78252
-8.76359
-8.74705
-8.73255
-8.71981
-8.70855
-8.69853
-8.68955
-8.68143
-8.674
-8.66717
-8.66085
-8.65502
-8.64967
-8.64486
-8.64064
-8.63712
-8.63437
-8.63249
-8.63154
-24.0918
-24.0002
-23.8118
-23.5175
-23.1063
-22.5699
-21.9071
-21.1288
-20.2591
-19.3313
-18.3808
-17.4392
-16.5313
-15.6745
-14.8796
-14.1527
-13.4962
-12.9103
-12.3927
-11.9391
-11.5431
-11.1977
-10.8964
-10.6332
-10.403
-10.2014
-10.0246
-9.86906
-9.73156
-9.60921
-9.49953
-9.40066
-9.31132
-9.23067
-9.15808
-9.09299
-9.03489
-8.98324
-8.93755
-8.89734
-8.86216
-8.83156
-8.80508
-8.78219
-8.76238
-8.74519
-8.73022
-8.71714
-8.70564
-8.69548
-8.68643
-8.67828
-8.67085
-8.66398
-8.65756
-8.65154
-8.64588
-8.6406
-8.63577
-8.63148
-8.62784
-8.62499
-8.62302
-8.62204
-24.4845
-24.3958
-24.2113
-23.9178
-23.4989
-22.9402
-22.236
-21.3969
-20.4521
-19.4439
-18.4161
-17.406
-16.4415
-15.5404
-14.7128
-13.9633
-13.2933
-12.7017
-12.1855
-11.7389
-11.3537
-11.0212
-10.7336
-10.4841
-10.2673
-10.0785
-9.91397
-9.76991
-9.64301
-9.53016
-9.42871
-9.33678
-9.2533
-9.17767
-9.10946
-9.0483
-8.99375
-8.94533
-8.9026
-8.86512
-8.8325
-8.80434
-8.78018
-8.75947
-8.74167
-8.72631
-8.71297
-8.70133
-8.69112
-8.6821
-8.67404
-8.66676
-8.66005
-8.65375
-8.64776
-8.64202
-8.63652
-8.63129
-8.62641
-8.622
-8.61821
-8.61521
-8.61314
-8.6121
-24.89
-24.8065
-24.6301
-24.3429
-23.9215
-23.3432
-22.5959
-21.6888
-20.6581
-19.5582
-18.4438
-17.3587
-16.334
-15.3873
-14.5266
-13.7552
-13.0725
-12.4765
-11.9636
-11.5263
-11.1544
-10.8369
-10.5646
-10.3301
-10.1276
-9.9525
-9.80086
-9.66892
-9.5532
-9.45033
-9.35737
-9.27244
-9.19476
-9.12407
-9.06019
-9.00292
-8.95192
-8.90675
-8.86698
-8.83225
-8.80221
-8.77654
-8.75478
-8.73634
-8.72063
-8.70714
-8.69547
-8.68531
-8.6764
-8.66854
-8.66151
-8.65511
-8.64915
-8.64344
-8.63787
-8.63241
-8.62705
-8.62184
-8.61687
-8.61229
-8.60831
-8.60513
-8.60293
-8.60182
-25.3035
-25.228
-25.0649
-24.7909
-24.374
-23.7808
-22.9892
-22.006
-20.8762
-19.6719
-18.4611
-17.2949
-16.207
-15.214
-14.3209
-13.5285
-12.8344
-12.2353
-11.7277
-11.3026
-10.9467
-10.6463
-10.3909
-10.1726
-9.98519
-9.82439
-9.68625
-9.56698
-9.463
-9.37056
-9.2863
-9.20831
-9.13627
-9.07034
-9.01065
-8.95722
-8.90976
-8.86781
-8.831
-8.79899
-8.77152
-8.74837
-8.72909
-8.713
-8.69943
-8.68786
-8.67788
-8.66921
-8.66162
-8.65494
-8.64895
-8.64346
-8.63826
-8.63314
-8.628
-8.62279
-8.61755
-8.61233
-8.60724
-8.60244
-8.5982
-8.59479
-8.59244
-8.59126
-25.7204
-25.6559
-25.512
-25.2596
-24.8564
-24.255
-23.4194
-22.3505
-21.1058
-19.7824
-18.4651
-17.2115
-16.0587
-15.02
-14.0956
-13.2838
-12.5796
-11.9786
-11.4785
-11.0689
-10.7322
-10.4511
-10.2142
-10.0129
-9.84122
-9.69518
-9.57102
-9.46487
-9.37316
-9.29165
-9.21625
-9.14499
-9.07828
-9.01687
-8.96119
-8.91151
-8.86754
-8.82877
-8.79489
-8.76557
-8.74061
-8.71999
-8.70327
-8.68963
-8.67825
-8.66862
-8.66035
-8.65316
-8.64689
-8.64138
-8.63644
-8.63188
-8.62747
-8.62296
-8.61822
-8.61326
-8.60812
-8.60286
-8.5976
-8.59252
-8.58796
-8.58426
-8.58173
-8.58046
-26.1358
-26.0855
-25.9677
-25.7467
-25.3688
-24.7689
-23.8907
-22.7252
-21.3456
-19.8865
-18.4525
-17.1058
-15.8873
-14.8049
-13.8509
-13.0217
-12.309
-11.7069
-11.2166
-10.8264
-10.5124
-10.2527
-10.0356
-9.85235
-9.69664
-9.56568
-9.45589
-9.36321
-9.28433
-9.21431
-9.14789
-9.08295
-9.02116
-8.96397
-8.91204
-8.86601
-8.82552
-8.78988
-8.75887
-8.73216
-8.70963
-8.69154
-8.67747
-8.66637
-8.65724
-8.64956
-8.64299
-8.63726
-8.63229
-8.62796
-8.62407
-8.62046
-8.61686
-8.61296
-8.60861
-8.60387
-8.59882
-8.59349
-8.58801
-8.58259
-8.57762
-8.57358
-8.57085
-8.56948
-26.545
-26.5125
-26.4278
-26.2495
-25.9112
-25.3259
-24.4091
-23.1338
-21.5937
-19.9802
-18.4197
-16.9744
-15.6912
-14.5687
-13.5872
-12.7435
-12.024
-11.4206
-10.9423
-10.5763
-10.289
-10.0527
-9.85663
-9.69202
-9.55228
-9.43659
-9.3415
-9.26248
-9.19702
-9.13924
-9.08188
-9.02262
-8.96518
-8.91186
-8.86338
-8.82091
-8.78392
-8.75132
-8.72314
-8.69895
-8.67867
-8.66309
-8.65182
-8.64338
-8.63651
-8.63079
-8.6259
-8.62158
-8.61789
-8.61472
-8.61188
-8.60925
-8.6065
-8.60321
-8.59921
-8.59469
-8.5897
-8.58427
-8.57855
-8.57271
-8.56722
-8.56277
-8.55983
-8.55837
-26.9434
-26.932
-26.8881
-26.765
-26.4833
-25.93
-24.9821
-23.5816
-21.8469
-20.0584
-18.3636
-16.8137
-15.4688
-14.3122
-13.3053
-12.4504
-11.7261
-11.1195
-10.6556
-10.3198
-10.0642
-9.85253
-9.67842
-9.53309
-9.40879
-9.30846
-9.22839
-9.16298
-9.11163
-9.0671
-9.01892
-8.96429
-8.91051
-8.86073
-8.81529
-8.77636
-8.74292
-8.71323
-8.68783
-8.66608
-8.64779
-8.63469
-8.62642
-8.62079
-8.61617
-8.6124
-8.60916
-8.60619
-8.60375
-8.60173
-8.59991
-8.59828
-8.59644
-8.59377
-8.59008
-8.58574
-8.58081
-8.57525
-8.56925
-8.56292
-8.55679
-8.55184
-8.54868
-8.54714
-27.3267
-27.3398
-27.3441
-27.2893
-27.0839
-26.5854
-25.619
-24.0755
-22.0997
-20.1147
-18.2812
-16.6197
-15.219
-14.0372
-13.0054
-12.1441
-11.4178
-10.8033
-10.3559
-10.0586
-9.84036
-9.65345
-9.50209
-9.37672
-9.26662
-9.1817
-9.11709
-9.06483
-9.0284
-8.99859
-8.95974
-8.9081
-8.8572
-8.81073
-8.76778
-8.73242
-8.70273
-8.67572
-8.65311
-8.63372
-8.61699
-8.60633
-8.60135
-8.59874
-8.5963
-8.59445
-8.59285
-8.59111
-8.58989
-8.58902
-8.58817
-8.58759
-8.58673
-8.58469
-8.58122
-8.57703
-8.57218
-8.56647
-8.56017
-8.55327
-8.54631
-8.54078
-8.53743
-8.53585
-27.691
-27.7313
-27.7908
-27.8179
-27.7112
-27.2966
-26.3319
-24.6255
-22.3434
-20.1413
-18.1713
-16.3871
-14.9404
-13.747
-12.6879
-11.8267
-11.1025
-10.4706
-10.0421
-9.79421
-9.62034
-9.45644
-9.32856
-9.22419
-9.12591
-9.05661
-9.00821
-8.96791
-8.94739
-8.93446
-8.90521
-8.85401
-8.8052
-8.76206
-8.72075
-8.68914
-8.66357
-8.63881
-8.61907
-8.60206
-8.5862
-8.57795
-8.5767
-8.57737
-8.57696
-8.577
-8.57704
-8.57636
-8.57632
-8.57661
-8.57666
-8.57716
-8.57742
-8.57603
-8.57264
-8.56859
-8.56383
-8.55793
-8.55136
-8.54381
-8.53578
-8.52958
-8.52608
-8.52452
-28.0327
-28.1027
-28.2235
-28.3457
-28.362
-28.0673
-27.1357
-25.2462
-22.5636
-20.1287
-18.0355
-16.109
-14.6322
-13.447
-12.3514
-11.5003
-10.7856
-10.1188
-9.71217
-9.52896
-9.40801
-9.26192
-9.15853
-9.07709
-8.98639
-8.93333
-8.90252
-8.87177
-8.86847
-8.87561
-8.85644
-8.8017
-8.75433
-8.71499
-8.67396
-8.64654
-8.62576
-8.60247
-8.58585
-8.57135
-8.55527
-8.54944
-8.55258
-8.55689
-8.55816
-8.56008
-8.5618
-8.56192
-8.56307
-8.56456
-8.56535
-8.56701
-8.56855
-8.56784
-8.5643
-8.56041
-8.55582
-8.54964
-8.54285
-8.53461
-8.52515
-8.51821
-8.51465
-8.51322
-28.3491
-28.4502
-28.6372
-28.8665
-29.0315
-28.9005
-28.0485
-25.9588
-22.7373
-20.0652
-17.8802
-15.7754
-14.2933
-13.1462
-11.9927
-11.1674
-10.4749
-9.74301
-9.36283
-9.26567
-9.20845
-9.0693
-8.99243
-8.93758
-8.84712
-8.81189
-8.80122
-8.77551
-8.79124
-8.82308
-8.81494
-8.75038
-8.70428
-8.67001
-8.62698
-8.6046
-8.58976
-8.5665
-8.55355
-8.542
-8.52394
-8.5206
-8.52913
-8.53753
-8.53986
-8.54372
-8.54725
-8.54774
-8.55012
-8.55292
-8.55419
-8.5571
-8.56019
-8.56021
-8.55617
-8.55247
-8.54817
-8.54158
-8.53472
-8.52578
-8.51438
-8.50662
-8.50316
-8.50199
-28.6377
-28.7707
-29.0271
-29.3735
-29.7127
-29.7967
-29.0917
-26.7956
-22.8286
-19.9376
-17.7201
-15.3707
-13.923
-12.859
-11.6046
-10.8305
-10.1828
-9.33522
-8.98967
-9.00812
-9.02858
-8.87641
-8.83039
-8.80883
-8.70619
-8.6922
-8.7062
-8.67761
-8.715
-8.77815
-8.7828
-8.69862
-8.65461
-8.628
-8.57903
-8.56326
-8.55629
-8.53051
-8.52228
-8.51462
-8.49178
-8.4912
-8.50652
-8.51965
-8.52197
-8.52792
-8.53356
-8.53373
-8.53749
-8.5418
-8.5431
-8.5474
-8.55242
-8.55328
-8.54816
-8.54477
-8.54098
-8.53372
-8.52703
-8.51749
-8.50336
-8.49477
-8.49165
-8.49091
-28.8969
-29.0616
-29.3887
-29.8595
-30.3966
-30.7534
-30.2895
-27.8054
-22.7815
-19.7309
-17.5828
-14.8706
-13.5204
-12.6077
-11.1731
-10.4923
-9.928
-8.88214
-8.58688
-8.76132
-8.87797
-8.67856
-8.6722
-8.69567
-8.56019
-8.57407
-8.62048
-8.57558
-8.63872
-8.74239
-8.76305
-8.64397
-8.60477
-8.59044
-8.52885
-8.52246
-8.52646
-8.49373
-8.49213
-8.49016
-8.45806
-8.46091
-8.48501
-8.50374
-8.50424
-8.51269
-8.52098
-8.51971
-8.52518
-8.53137
-8.53194
-8.53787
-8.54535
-8.54723
-8.54011
-8.53728
-8.53436
-8.52596
-8.51986
-8.50997
-8.49193
-8.4826
-8.48017
-8.48007
-29.1258
-29.3212
-29.718
-30.3168
-31.0716
-31.7633
-31.6676
-29.0621
-22.5111
-19.4294
-17.5153
-14.2362
-13.0849
-12.4266
-10.674
-10.1552
-9.7391
-8.3627
-8.14754
-8.53171
-8.76997
-8.46719
-8.51738
-8.60548
-8.40336
-8.45723
-8.54879
-8.46551
-8.56101
-8.7176
-8.76004
-8.58247
-8.55413
-8.55979
-8.47443
-8.48212
-8.50199
-8.45487
-8.46322
-8.47007
-8.42167
-8.42937
-8.46491
-8.49048
-8.48625
-8.49801
-8.50991
-8.50541
-8.51318
-8.52191
-8.52053
-8.52844
-8.53909
-8.54235
-8.5318
-8.53
-8.52854
-8.51815
-8.5133
-8.50359
-8.47984
-8.47005
-8.46879
-8.46956
-29.3241
-29.5481
-30.0117
-30.7377
-31.7242
-32.8126
-33.2499
-30.6774
-21.8897
-19.0181
-17.5928
-13.4065
-12.6163
-12.3674
-10.0676
-9.82197
-9.6586
-7.74419
-7.66422
-8.32724
-8.7232
-8.22811
-8.36526
-8.54946
-8.22652
-8.34142
-8.49839
-8.34145
-8.48019
-8.7058
-8.78012
-8.50797
-8.50202
-8.53988
-8.41254
-8.44215
-8.4855
-8.41181
-8.43561
-8.45653
-8.3809
-8.39618
-8.44663
-8.48081
-8.46727
-8.48384
-8.50093
-8.49034
-8.50151
-8.51381
-8.50854
-8.51903
-8.53378
-8.53902
-8.52283
-8.5229
-8.52379
-8.51
-8.50742
-8.49886
-8.4667
-8.45706
-8.45761
-8.45946
-29.4921
-29.7421
-30.2672
-31.1154
-32.3388
-33.8794
-35.0532
-32.8176
-20.7293
-18.4855
-17.9302
-12.2877
-12.1159
-12.5067
-9.2911
-9.4952
-9.74889
-6.9769
-7.13037
-8.15717
-8.76373
-7.93896
-8.21517
-8.54431
-8.01544
-8.22654
-8.48011
-8.19443
-8.39447
-8.70899
-8.83245
-8.41118
-8.4479
-8.53653
-8.33826
-8.40252
-8.48083
-8.36122
-8.4094
-8.45273
-8.33311
-8.36095
-8.43062
-8.47604
-8.44615
-8.47017
-8.49491
-8.47376
-8.49014
-8.50766
-8.49548
-8.50954
-8.52954
-8.5378
-8.51261
-8.51593
-8.52057
-8.50104
-8.50228
-8.49651
-8.45187
-8.44356
-8.44672
-8.44986
-29.6307
-29.9033
-30.4831
-31.4435
-32.8989
-34.9328
-37.0788
-35.7273
-18.7581
-17.8271
-18.6974
-10.7388
-11.5876
-12.9553
-8.24917
-9.1782
-10.0999
-5.98683
-6.54272
-8.03132
-8.9278
-7.56609
-8.06688
-8.61438
-7.74876
-8.11282
-8.50973
-8.01121
-8.30233
-8.72878
-8.93013
-8.27848
-8.39147
-8.55834
-8.24416
-8.36328
-8.49358
-8.29807
-8.38467
-8.46326
-8.27441
-8.32349
-8.41734
-8.47798
-8.42115
-8.45692
-8.49307
-8.45452
-8.47908
-8.50428
-8.4806
-8.49984
-8.52641
-8.53947
-8.50024
-8.50906
-8.51951
-8.49056
-8.49788
-8.49758
-8.43442
-8.42955
-8.43624
-8.44081
-29.7411
-30.0327
-30.6588
-31.7175
-33.3882
-35.9321
-39.2992
-39.761
-15.5886
-17.0518
-20.1373
-8.55218
-11.0401
-13.8703
-6.80159
-8.87546
-10.8384
-4.66596
-5.90519
-7.95847
-9.26554
-7.06037
-7.92118
-8.79442
-7.39519
-8.00128
-8.60962
-7.77267
-8.20319
-8.76576
-9.09179
-8.09025
-8.33302
-8.61757
-8.11936
-8.32473
-8.53175
-8.21498
-8.36154
-8.49462
-8.19909
-8.28391
-8.40719
-8.48914
-8.38971
-8.44411
-8.49717
-8.43096
-8.46832
-8.50484
-8.46281
-8.48985
-8.52439
-8.54513
-8.48445
-8.50224
-8.52153
-8.47751
-8.49415
-8.50352
-8.41293
-8.41506
-8.42627
-8.43236
-29.8252
-30.1317
-30.7949
-31.9343
-33.792
-36.8282
-41.6392
-45.4232
-10.6798
-16.1897
-22.5881
-5.43025
-10.4908
-15.4702
-4.7477
-8.59386
-12.1405
-2.85973
-5.23477
-7.94368
-9.84584
-6.35215
-7.7807
-9.13293
-6.9101
-7.89425
-8.81086
-7.45157
-8.09843
-8.8185
-9.34355
-7.81899
-8.27387
-8.7314
-7.94834
-8.28756
-8.60647
-8.10145
-8.34026
-8.55586
-8.09904
-8.24304
-8.40038
-8.51295
-8.34823
-8.4318
-8.50967
-8.40068
-8.45794
-8.51098
-8.44058
-8.47959
-8.52333
-8.55637
-8.46344
-8.49545
-8.52794
-8.46044
-8.49097
-8.51637
-8.38546
-8.40033
-8.41697
-8.42455
-29.8848
-30.2023
-30.8928
-32.0933
-34.0989
-37.5666
-43.9504
-53.4197
-3.28818
-15.3035
-26.5098
-0.956073
-9.97004
-18.0522
-1.80753
-8.34439
-14.2451
-0.35133
-4.56988
-7.98405
-10.7624
-5.34505
-7.65123
-9.6961
-6.23126
-7.7962
-9.15571
-7.00997
-7.99303
-8.88213
-9.72158
-7.42683
-8.2169
-8.92326
-7.70948
-8.25322
-8.73301
-7.94292
-8.32132
-8.65934
-7.96298
-8.20286
-8.39676
-8.55417
-8.29179
-8.42026
-8.53401
-8.36045
-8.44815
-8.52498
-8.41185
-8.4693
-8.52291
-8.57541
-8.43485
-8.48877
-8.54063
-8.4374
-8.48813
-8.53899
-8.34931
-8.38593
-8.40855
-8.41749
-29.9222
-30.2468
-30.955
-32.1956
-34.3022
-38.0939
-45.9773
-64.72
7.58996
-14.5029
-32.5132
5.44116
-9.52815
-22.0126
2.40029
-8.14458
-17.4712
3.15755
-3.98165
-8.06245
-12.1415
-3.90865
-7.54325
-10.5724
-5.27386
-7.71489
-9.70039
-6.39592
-7.89773
-8.94635
-10.2753
-6.86275
-8.16745
-9.22445
-7.37336
-8.22426
-8.93188
-7.71972
-8.30569
-8.82174
-7.77549
-8.16718
-8.39559
-8.61935
-8.21388
-8.41013
-8.57492
-8.30599
-8.43946
-8.55004
-8.37394
-8.45971
-8.52261
-8.60548
-8.3956
-8.48253
-8.56229
-8.40595
-8.48542
-8.57537
-8.30091
-8.37297
-8.40135
-8.41137
-29.9396
-30.2676
-30.9843
-32.2445
-34.4015
-38.3682
-47.3138
-80.6312
23.2862
-13.9629
-41.3924
14.5259
-9.24367
-27.8689
8.38407
-8.02147
-22.2363
8.06986
-3.58843
-8.13867
-14.1508
-1.86966
-7.47364
-11.8775
-3.92438
-7.66246
-10.5179
-5.53922
-7.83158
-8.99244
-11.0706
-6.05879
-8.13386
-9.67553
-6.90041
-8.20451
-9.22969
-7.40543
-8.2946
-9.06462
-7.51553
-8.14205
-8.39475
-8.71694
-8.1056
-8.40216
-8.63833
-8.2313
-8.43239
-8.59003
-8.32296
-8.45175
-8.52119
-8.6506
-8.34138
-8.47691
-8.59619
-8.36262
-8.48223
-8.63054
-8.23517
-8.36294
-8.39545
-8.40609
)
;

boundaryField
{
    left
    {
        type            calculated;
        value           nonuniform List<scalar> 
32
(
-21.8984
-21.963
-22.0858
-22.2601
-22.4801
-22.7404
-23.0363
-23.3632
-23.7165
-24.0918
-24.4845
-24.89
-25.3035
-25.7204
-26.1358
-26.545
-26.9434
-27.3267
-27.691
-28.0327
-28.3491
-28.6377
-28.8969
-29.1258
-29.3241
-29.4921
-29.6307
-29.7411
-29.8252
-29.8848
-29.9222
-29.9396
)
;
    }
    right
    {
        type            calculated;
        value           nonuniform List<scalar> 
32
(
-8.67884
-8.67711
-8.67382
-8.66918
-8.66338
-8.65658
-8.64892
-8.64054
-8.63154
-8.62204
-8.6121
-8.60182
-8.59126
-8.58046
-8.56948
-8.55837
-8.54714
-8.53585
-8.52452
-8.51322
-8.50199
-8.49091
-8.48007
-8.46956
-8.45946
-8.44986
-8.44081
-8.43236
-8.42455
-8.41749
-8.41137
-8.40609
)
;
    }
    interface
    {
        type            calculated;
        value           nonuniform List<scalar> 
64
(
-29.9436
-30.2724
-30.9912
-32.2561
-34.4255
-38.4378
-47.7477
-89.9267
32.528
-13.7847
-46.6627
19.8492
-9.15264
-31.3442
11.8923
-7.98316
-25.0625
10.9346
-3.45879
-8.16944
-15.3369
-0.674875
-7.45098
-12.6535
-3.13542
-7.64528
-11.0051
-5.04014
-7.80878
-9.00795
-11.5381
-5.58716
-8.12228
-9.94422
-6.62406
-8.19747
-9.40705
-7.22171
-8.29035
-9.20919
-7.36439
-8.13303
-8.39402
-8.775
-8.04256
-8.39878
-8.67646
-8.18801
-8.4293
-8.61427
-8.29361
-8.44829
-8.51996
-8.67747
-8.30987
-8.47425
-8.61663
-8.33745
-8.48037
-8.66349
-8.19721
-8.35884
-8.3928
-8.40361
)
;
    }
    bottom
    {
        type            calculated;
        value           nonuniform List<scalar> 
64
(
-21.8816
-21.8016
-21.6427
-21.4071
-21.098
-20.7204
-20.2803
-19.7855
-19.245
-18.6687
-18.067
-17.4507
-16.8297
-16.2136
-15.6105
-15.0275
-14.47
-13.9423
-13.4472
-12.9863
-12.5602
-12.1687
-11.8108
-11.4851
-11.1898
-10.9228
-10.682
-10.4653
-10.2705
-10.0956
-9.93863
-9.79788
-9.67172
-9.5587
-9.4575
-9.36695
-9.28601
-9.21374
-9.14928
-9.09188
-9.04083
-8.99549
-8.95529
-8.91969
-8.88819
-8.86035
-8.83574
-8.81401
-8.7948
-8.77783
-8.76283
-8.74957
-8.73783
-8.72747
-8.71832
-8.71029
-8.70327
-8.69722
-8.69207
-8.6878
-8.6844
-8.68185
-8.68015
-8.6793
)
;
    }
    defaultFaces
    {
        type            empty;
    }
}


// ************************************************************************* //
