/*--------------------------------*- C++ -*----------------------------------*\
| =========                 |                                                 |
| \\      /  F ield         | OpenFOAM: The Open Source CFD Toolbox           |
|  \\    /   O peration     | Version:  5.x                                   |
|   \\  /    A nd           | Web:      www.OpenFOAM.org                      |
|    \\/     M anipulation  |                                                 |
\*---------------------------------------------------------------------------*/
FoamFile
{
    version     2.0;
    format      ascii;
    class       volScalarField;
    location    "2.2";
    object      T;
}
// * * * * * * * * * * * * * * * * * * * * * * * * * * * * * * * * * * * * * //

dimensions      [0 0 0 1 0 0 0];

internalField   nonuniform List<scalar> 
2048
(
9.8428
9.84337
9.84451
9.84621
9.84843
9.85114
9.8543
9.85786
9.86174
9.86588
9.8702
9.87463
9.87909
9.88352
9.88785
9.89204
9.89604
9.89983
9.90339
9.9067
9.90976
9.91258
9.91515
9.91749
9.91961
9.92153
9.92326
9.92481
9.92621
9.92747
9.9286
9.92961
9.93052
9.93133
9.93205
9.93271
9.93329
9.93381
9.93427
9.93468
9.93505
9.93537
9.93566
9.93592
9.93614
9.93634
9.93652
9.93668
9.93682
9.93694
9.93705
9.93714
9.93723
9.9373
9.93737
9.93742
9.93747
9.93752
9.93755
9.93758
9.93761
9.93763
9.93764
9.93765
9.53479
9.5365
9.53988
9.54491
9.5515
9.55956
9.56895
9.57951
9.59105
9.60336
9.6162
9.62935
9.64259
9.65573
9.66858
9.68099
9.69286
9.70408
9.71461
9.7244
9.73345
9.74176
9.74935
9.75626
9.76252
9.76818
9.77328
9.77787
9.78199
9.7857
9.78902
9.792
9.79467
9.79706
9.79921
9.80112
9.80284
9.80437
9.80573
9.80695
9.80803
9.80899
9.80984
9.81059
9.81126
9.81185
9.81237
9.81283
9.81323
9.81359
9.81391
9.81419
9.81444
9.81466
9.81485
9.81502
9.81517
9.8153
9.81541
9.8155
9.81557
9.81562
9.81566
9.81568
9.23898
9.24178
9.24734
9.25561
9.26646
9.27973
9.2952
9.31261
9.33164
9.35192
9.37307
9.39473
9.41653
9.43813
9.45923
9.47961
9.49905
9.51743
9.53465
9.55065
9.56542
9.57897
9.59134
9.60259
9.61277
9.62197
9.63026
9.63772
9.64442
9.65043
9.65582
9.66066
9.665
9.66888
9.67236
9.67547
9.67825
9.68073
9.68295
9.68492
9.68667
9.68823
9.68961
9.69083
9.69191
9.69286
9.69371
9.69445
9.69511
9.69569
9.6962
9.69666
9.69706
9.69742
9.69773
9.69801
9.69825
9.69846
9.69863
9.69878
9.6989
9.69899
9.69905
9.69908
8.95417
8.95804
8.96574
8.97718
8.99222
9.01062
9.0321
9.05628
9.08271
9.11087
9.14025
9.1703
9.2005
9.23039
9.25957
9.28769
9.31448
9.33977
9.36342
9.38537
9.4056
9.42414
9.44104
9.45639
9.47028
9.48281
9.4941
9.50425
9.51336
9.52153
9.52887
9.53544
9.54133
9.54661
9.55134
9.55557
9.55935
9.56272
9.56573
9.56841
9.57079
9.5729
9.57478
9.57643
9.5779
9.57919
9.58033
9.58134
9.58223
9.58302
9.58372
9.58433
9.58488
9.58536
9.58579
9.58617
9.58649
9.58678
9.58702
9.58722
9.58738
9.58751
9.58759
9.58763
8.67937
8.6843
8.6941
8.70867
8.72785
8.75135
8.77881
8.80975
8.84357
8.87963
8.9172
8.9556
8.99414
9.03222
9.06932
9.10501
9.13896
9.17094
9.20078
9.22843
9.25387
9.27714
9.29832
9.31754
9.3349
9.35056
9.36464
9.3773
9.38865
9.39884
9.40797
9.41616
9.4235
9.43007
9.43596
9.44123
9.44594
9.45014
9.45388
9.45722
9.46018
9.46281
9.46514
9.4672
9.46902
9.47063
9.47204
9.4733
9.4744
9.47538
9.47624
9.47701
9.47769
9.47829
9.47882
9.47928
9.47969
9.48005
9.48035
9.48061
9.48081
9.48096
9.48107
9.48112
8.41376
8.41972
8.43159
8.44926
8.47255
8.50114
8.5346
8.57234
8.61363
8.65763
8.70345
8.75022
8.79709
8.8433
8.88823
8.93136
8.97229
9.01074
9.04656
9.07966
9.11005
9.1378
9.16303
9.18586
9.20647
9.22503
9.24171
9.25669
9.27012
9.28216
9.29295
9.30263
9.3113
9.31907
9.32603
9.33225
9.33782
9.34278
9.34721
9.35115
9.35465
9.35775
9.3605
9.36292
9.36507
9.36696
9.36863
9.3701
9.3714
9.37255
9.37357
9.37447
9.37527
9.37598
9.3766
9.37716
9.37764
9.37807
9.37843
9.37873
9.37897
9.37915
9.37928
9.37934
8.15663
8.1636
8.1775
8.19824
8.22562
8.25932
8.29883
8.34346
8.39232
8.44439
8.49857
8.55379
8.60902
8.66335
8.71605
8.76649
8.81424
8.85898
8.90055
8.93886
8.97396
9.00594
9.03494
9.06116
9.08478
9.10603
9.1251
9.14221
9.15754
9.17128
9.1836
9.19464
9.20453
9.21339
9.22133
9.22844
9.23479
9.24046
9.24551
9.25
9.25399
9.25752
9.26065
9.26341
9.26584
9.26799
9.26989
9.27156
9.27304
9.27434
9.2755
9.27652
9.27743
9.27823
9.27895
9.27958
9.28014
9.28062
9.28104
9.28139
9.28167
9.28188
9.28202
9.28209
7.90738
7.91534
7.93123
7.95499
7.98645
8.02527
8.07091
8.12255
8.17915
8.23947
8.30218
8.36597
8.42963
8.4921
8.5525
8.61017
8.66458
8.71543
8.76252
8.80581
8.84536
8.88131
8.91385
8.9432
8.96961
8.99332
9.01459
9.03364
9.05071
9.06599
9.07969
9.09196
9.10297
9.11284
9.12167
9.12958
9.13665
9.14295
9.14857
9.15357
9.158
9.16192
9.16539
9.16845
9.17115
9.17353
9.17563
9.17748
9.17911
9.18055
9.18183
9.18296
9.18396
9.18486
9.18565
9.18636
9.18698
9.18753
9.18799
9.18839
9.18871
9.18895
9.18911
9.18919
7.66552
7.67444
7.69227
7.71899
7.75449
7.79846
7.85031
7.90914
7.97368
8.04248
8.11392
8.18644
8.25863
8.32927
8.39735
8.46214
8.52309
8.57985
8.63225
8.68028
8.72402
8.76368
8.79949
8.83174
8.8607
8.88667
8.90993
8.93074
8.94937
8.96605
8.981
8.99439
9.00641
9.01718
9.02683
9.03546
9.04318
9.05007
9.0562
9.06165
9.06648
9.07076
9.07453
9.07786
9.08079
9.08337
9.08565
9.08765
9.08942
9.09099
9.09237
9.0936
9.09469
9.09567
9.09653
9.0973
9.09799
9.09859
9.09911
9.09954
9.0999
9.10016
9.10034
9.10043
7.43066
7.44048
7.46017
7.48978
7.52927
7.5784
7.63657
7.70275
7.77551
7.85305
7.93347
8.01493
8.09577
8.17461
8.25035
8.32217
8.3895
8.45199
8.50948
8.56199
8.60968
8.65279
8.69163
8.72652
8.75781
8.78582
8.81087
8.83327
8.8533
8.87123
8.8873
8.9017
8.91462
8.92621
8.93659
8.94589
8.95419
8.9616
8.9682
8.97406
8.97925
8.98383
8.98788
8.99144
8.99458
8.99734
8.99977
9.00191
9.0038
9.00547
9.00695
9.00826
9.00943
9.01047
9.0114
9.01224
9.01298
9.01363
9.01419
9.01467
9.01506
9.01536
9.01555
9.01565
7.20244
7.21311
7.23456
7.26695
7.31035
7.36463
7.42922
7.50299
7.58424
7.67085
7.76055
7.85117
7.9408
8.0279
8.11126
8.19002
8.26358
8.3316
8.39396
8.4507
8.50207
8.54837
8.58997
8.62728
8.66067
8.69052
8.71718
8.74099
8.76226
8.7813
8.79835
8.81365
8.82738
8.83971
8.85075
8.86064
8.86948
8.87736
8.88437
8.89059
8.8961
8.90096
8.90525
8.90902
8.91233
8.91524
8.91781
8.92006
8.92205
8.92381
8.92537
8.92676
8.92799
8.9291
8.93009
8.93098
8.93177
8.93247
8.93308
8.9336
8.93402
8.93435
8.93456
8.93467
6.98061
6.99206
7.01514
7.05015
7.09734
7.15674
7.22784
7.30945
7.39955
7.49561
7.59491
7.69493
7.79349
7.88888
7.97983
8.06543
8.14507
8.21843
8.28541
8.34614
8.40091
8.45013
8.49426
8.53375
8.56902
8.60051
8.62859
8.65364
8.67601
8.69601
8.71394
8.73003
8.74449
8.75747
8.76911
8.77953
8.78884
8.79714
8.80452
8.81107
8.81686
8.82197
8.82646
8.8304
8.83387
8.83691
8.83958
8.84194
8.84402
8.84585
8.84748
8.84892
8.85022
8.85138
8.85242
8.85336
8.8542
8.85495
8.8556
8.85616
8.85662
8.85697
8.85721
8.85732
6.76495
6.77709
6.80164
6.83908
6.88989
6.95433
7.03205
7.12175
7.22111
7.32704
7.43631
7.54599
7.65362
7.75735
7.85584
7.94815
8.03372
8.11222
8.18359
8.24802
8.30593
8.35781
8.40421
8.44565
8.4826
8.51553
8.54485
8.57099
8.5943
8.61514
8.63383
8.65063
8.66573
8.67929
8.69146
8.70236
8.71209
8.72077
8.72848
8.73531
8.74135
8.74666
8.75133
8.75542
8.75901
8.76217
8.76493
8.76737
8.76952
8.77142
8.7731
8.7746
8.77594
8.77714
8.77823
8.77921
8.7801
8.78089
8.78159
8.78219
8.78268
8.78306
8.78332
8.78345
6.5553
6.56802
6.59385
6.63347
6.68767
6.75704
6.84144
6.93956
7.04863
7.16492
7.28455
7.40416
7.521
7.63308
7.73904
7.83795
7.92926
8.01269
8.08821
8.15608
8.21684
8.27112
8.31954
8.3627
8.40113
8.43532
8.46573
8.49279
8.5169
8.53846
8.55781
8.57522
8.59089
8.60497
8.61762
8.62894
8.63905
8.64805
8.65605
8.66314
8.66939
8.67489
8.6797
8.68392
8.68761
8.69085
8.69369
8.69619
8.6984
8.70035
8.70207
8.70361
8.70499
8.70624
8.70737
8.70839
8.70932
8.71016
8.7109
8.71154
8.71207
8.71248
8.71275
8.71289
6.35154
6.36472
6.39159
6.43309
6.49039
6.56449
6.65563
6.76251
6.88185
7.00903
7.13946
7.26927
7.39543
7.51585
7.62919
7.73456
7.83144
7.9196
7.99901
8.07004
8.13336
8.18977
8.23998
8.28465
8.32436
8.35964
8.39097
8.41881
8.4436
8.46575
8.48566
8.5036
8.51977
8.53433
8.54739
8.55909
8.56953
8.57883
8.58708
8.59439
8.60083
8.60647
8.61141
8.61572
8.6195
8.6228
8.62571
8.62826
8.63051
8.63249
8.63425
8.63583
8.63724
8.63852
8.63968
8.64074
8.64171
8.64259
8.64337
8.64406
8.64462
8.64506
8.64536
8.64551
6.15358
6.16708
6.19473
6.23775
6.29776
6.37635
6.47425
6.59027
6.72053
6.85921
7.00088
7.14117
7.27673
7.40544
7.52606
7.63772
7.73998
7.83267
7.91573
7.98961
8.05519
8.11347
8.16523
8.21121
8.25204
8.28824
8.32034
8.34883
8.37416
8.3968
8.41717
8.43557
8.45219
8.46716
8.4806
8.49263
8.50336
8.51292
8.5214
8.52889
8.53549
8.54127
8.5463
8.55069
8.55452
8.55788
8.56082
8.56341
8.56569
8.56771
8.56949
8.57109
8.57252
8.57383
8.57502
8.57612
8.57713
8.57805
8.57887
8.5796
8.5802
8.58067
8.58099
8.58115
5.96137
5.97503
6.00316
6.04728
6.10956
6.19228
6.29689
6.42249
6.56445
6.71532
6.86867
7.01971
7.16472
7.30164
7.4294
7.54717
7.65463
7.75166
7.83811
7.91451
7.98206
8.04195
8.09505
8.14214
8.18391
8.2209
8.25362
8.28263
8.30838
8.33139
8.35214
8.37095
8.38797
8.40331
8.41708
8.4294
8.44039
8.45017
8.45884
8.4665
8.47324
8.47912
8.48422
8.48866
8.49253
8.49592
8.4989
8.50151
8.50381
8.50585
8.50765
8.50926
8.51071
8.51204
8.51326
8.51439
8.51544
8.51639
8.51726
8.51803
8.51867
8.51918
8.51952
8.51969
5.77488
5.78854
5.81681
5.86157
5.92556
6.01193
6.12315
6.25883
6.41345
6.57725
6.74272
6.90478
7.05924
7.2042
7.33897
7.46264
7.57509
7.67631
7.76589
7.84449
7.91368
7.97493
8.02915
8.07717
8.11975
8.15737
8.19059
8.22
8.24606
8.26932
8.29037
8.30955
8.32692
8.34259
8.35667
8.36925
8.38045
8.39042
8.39926
8.40706
8.41392
8.41988
8.42503
8.42949
8.43339
8.4368
8.43979
8.44242
8.44474
8.44678
8.44859
8.45021
8.45167
8.45302
8.45427
8.45543
8.4565
8.4575
8.45841
8.45922
8.45991
8.46045
8.46081
8.46099
5.59407
5.60757
5.63564
5.68051
5.74556
5.83499
5.95259
6.09892
6.2674
6.44493
6.6229
6.79626
6.9601
7.11289
7.25452
7.38387
7.50109
7.60638
7.69884
7.77926
7.84975
7.91215
7.96728
8.01607
8.05932
8.09745
8.13104
8.16075
8.187
8.21041
8.23168
8.25119
8.26889
8.28485
8.29921
8.31201
8.32339
8.33354
8.34251
8.35043
8.3574
8.36342
8.36859
8.37306
8.37697
8.38038
8.38338
8.38602
8.38834
8.39038
8.3922
8.39382
8.39528
8.39663
8.3979
8.39909
8.4002
8.40123
8.40219
8.40304
8.40378
8.40436
8.40475
8.40494
5.41896
5.4321
5.45962
5.50404
5.56942
5.66114
5.78476
5.94235
6.12625
6.31833
6.5091
6.69408
6.86713
7.02744
7.17582
7.31057
7.43232
7.54166
7.63675
7.71855
7.78998
7.85334
7.9092
7.95857
8.00241
8.04093
8.07478
8.1047
8.13102
8.15446
8.17589
8.19572
8.21372
8.22995
8.24456
8.25754
8.26907
8.27937
8.28846
8.29648
8.30354
8.3096
8.31477
8.31923
8.32313
8.32654
8.32953
8.33217
8.33449
8.33653
8.33834
8.33995
8.34141
8.34277
8.34406
8.34527
8.34641
8.34748
8.34848
8.34939
8.35018
8.3508
8.35121
8.35141
5.24952
5.26215
5.28875
5.33213
5.397
5.49007
5.61913
5.78866
5.99005
6.19748
6.40117
6.59819
6.78018
6.94755
7.10264
7.24245
7.36846
7.48194
7.57941
7.66208
7.73407
7.79827
7.85468
7.90446
7.94883
7.98761
8.02159
8.05168
8.07797
8.1013
8.12281
8.14298
8.16127
8.17772
8.19258
8.20571
8.21735
8.22778
8.23696
8.24506
8.25222
8.25831
8.26345
8.26787
8.27176
8.27515
8.27813
8.28077
8.28307
8.2851
8.2869
8.2885
8.28995
8.29131
8.29262
8.29386
8.29502
8.29613
8.29717
8.29813
8.29898
8.29965
8.30008
8.30029
5.08574
5.09771
5.12303
5.16478
5.22823
5.32152
5.45517
5.6373
5.85899
6.08245
6.29889
6.50859
6.69906
6.87286
7.03479
7.17925
7.30915
7.42707
7.52664
7.60959
7.6817
7.7467
7.80347
7.85349
7.8984
7.93732
7.9713
8.00153
8.02767
8.05074
8.07226
8.09285
8.11139
8.12802
8.14314
8.15639
8.16809
8.17866
8.1879
8.19606
8.20333
8.20944
8.2145
8.21886
8.22274
8.2261
8.22905
8.23169
8.23398
8.23598
8.23778
8.23936
8.24078
8.24214
8.24348
8.24474
8.24592
8.24707
8.24815
8.24916
8.25009
8.2508
8.25125
8.25146
4.92763
4.93877
4.96249
5.002
5.06308
5.15524
5.29225
5.48756
5.73344
5.97334
6.20196
6.42535
6.62362
6.80296
6.97214
7.12066
7.25396
7.37695
7.4783
7.56079
7.63255
7.69846
7.75539
7.80542
7.85095
7.88989
7.92371
7.95412
7.97999
8.00261
8.02407
8.04519
8.06397
8.08072
8.09613
8.10944
8.12117
8.13188
8.14116
8.14934
8.15676
8.16286
8.16782
8.17209
8.17596
8.17929
8.1822
8.18483
8.1871
8.18908
8.19087
8.19242
8.19381
8.19516
8.19653
8.1978
8.19901
8.2002
8.20131
8.20238
8.2034
8.20415
8.20462
8.20484
4.77514
4.78534
4.80716
4.84386
4.90157
4.99105
5.12972
5.33854
5.61408
5.87032
6.10987
6.34867
6.55367
6.73731
6.91463
7.06642
7.2024
7.33154
7.43428
7.51538
7.58625
7.65339
7.71023
7.76
7.80636
7.84514
7.87863
7.90933
7.9348
7.95676
7.97806
7.99992
8.01889
8.03567
8.05145
8.06477
8.07643
8.08735
8.09661
8.10479
8.11241
8.11848
8.12329
8.12745
8.13132
8.13459
8.13746
8.1401
8.14233
8.14427
8.14606
8.14758
8.14892
8.15026
8.15168
8.15296
8.15418
8.15542
8.15656
8.15768
8.1588
8.15961
8.16009
8.1603
4.62826
4.63739
4.65704
4.69041
4.74376
4.82884
4.96689
5.18898
5.50199
5.77357
6.02191
6.27893
6.48906
6.67521
6.86236
7.01623
7.15383
7.29092
7.3945
7.47306
7.54239
7.6114
7.66782
7.71696
7.76455
7.80294
7.83583
7.86709
7.89198
7.913
7.93402
7.95696
7.97604
7.99273
8.00901
8.02225
8.03377
8.04497
8.05416
8.06228
8.07019
8.07621
8.0808
8.08482
8.08872
8.09193
8.09472
8.0974
8.09959
8.10147
8.10328
8.10475
8.10603
8.10735
8.10883
8.11012
8.11134
8.11264
8.1138
8.11497
8.11623
8.11709
8.11756
8.11777
4.48691
4.49491
4.51218
4.54175
4.58979
4.66862
4.80306
5.03718
5.39881
5.68332
5.93696
6.21679
6.4296
6.61574
6.8156
6.96983
7.10745
7.25534
7.35889
7.4335
7.5005
7.57248
7.62799
7.67596
7.72547
7.76313
7.79508
7.82732
7.85143
7.87118
7.89176
7.91628
7.93531
7.95173
7.96875
7.98178
7.99302
8.00466
8.01369
8.02166
8.03002
8.03594
8.04026
8.04408
8.04809
8.0512
8.05389
8.05664
8.05876
8.06058
8.06242
8.06384
8.06503
8.06632
8.0679
8.06918
8.07039
8.07177
8.07293
8.07414
8.07558
8.07648
8.07695
8.07715
4.35105
4.35784
4.37256
4.39797
4.43984
4.51049
4.63759
4.88075
5.30698
5.59975
5.85342
6.16329
6.37512
6.55767
6.77493
6.92694
7.06221
7.22525
7.32741
7.39637
7.46002
7.53674
7.59058
7.63664
7.68918
7.7256
7.75611
7.79004
7.81306
7.83114
7.85101
7.87789
7.89662
7.91249
7.93063
7.94326
7.95405
7.96637
7.97511
7.98282
7.99185
7.99761
8.00155
8.00514
8.00933
8.01231
8.01487
8.01775
8.01978
8.0215
8.02342
8.02476
8.02585
8.02709
8.02881
8.03007
8.03125
8.03273
8.03388
8.0351
8.03678
8.03771
8.03816
8.03834
4.22058
4.22613
4.23819
4.25914
4.29412
4.35472
4.46998
4.71637
5.22995
5.523
5.76899
6.12007
6.32539
6.49935
6.74132
6.8873
7.01672
7.20141
7.30002
7.3613
7.42028
7.50442
7.55546
7.59854
7.65579
7.6902
7.7186
7.75529
7.77679
7.79272
7.8115
7.84185
7.85987
7.8748
7.89463
7.9066
7.91668
7.93006
7.93832
7.94559
7.95564
7.96112
7.96459
7.96788
7.97239
7.97518
7.97755
7.98064
7.98254
7.98414
7.98619
7.98743
7.98839
7.98956
7.99149
7.99269
7.99381
7.99545
7.99655
7.99776
7.99976
8.00071
8.00112
8.00127
4.09541
4.09969
4.10904
4.12535
4.15288
4.20172
4.30001
4.53943
5.17261
5.45309
5.6805
6.08953
6.28017
6.43856
6.7163
6.85062
6.96914
7.18499
7.27659
7.32796
7.38042
7.47599
7.52248
7.56107
7.62557
7.65681
7.68212
7.7232
7.74254
7.75579
7.77288
7.80832
7.82499
7.83842
7.86082
7.8717
7.88072
7.89574
7.90323
7.90981
7.92136
7.9264
7.92929
7.93217
7.93721
7.93972
7.94183
7.94527
7.94698
7.9484
7.95067
7.95178
7.95258
7.95364
7.95588
7.95698
7.958
7.95986
7.96086
7.96201
7.96446
7.96538
7.96573
7.96586
3.97542
3.97845
3.98507
3.99666
4.01639
4.05207
4.12793
4.34361
5.14162
5.38984
5.5836
6.0751
6.23911
6.37237
6.70208
6.81663
6.91707
7.17771
7.25692
7.29601
7.33941
7.45213
7.49149
7.52351
7.59894
7.6253
7.6462
7.69401
7.71021
7.72024
7.73472
7.77755
7.79186
7.80304
7.82928
7.83847
7.84594
7.86346
7.86976
7.87527
7.88905
7.89336
7.89554
7.8979
7.90376
7.90587
7.9076
7.91159
7.91302
7.91418
7.91681
7.91773
7.91833
7.91923
7.92192
7.92286
7.92372
7.9259
7.92675
7.92775
7.93083
7.93166
7.93193
7.93202
3.86051
3.8623
3.86622
3.8731
3.88488
3.90649
3.95474
4.12035
5.14598
5.33273
5.47254
6.08155
6.20175
6.29694
6.70179
6.78501
6.85739
7.18198
7.24061
7.2652
7.29592
7.43387
7.46233
7.48492
7.57652
7.59552
7.61019
7.66806
7.6797
7.68598
7.6965
7.74991
7.76039
7.7683
7.8002
7.80682
7.81209
7.83329
7.83782
7.84175
7.85876
7.86192
7.86328
7.86494
7.87203
7.87354
7.87475
7.87955
7.88058
7.88139
7.88455
7.88521
7.88558
7.88624
7.88957
7.89026
7.89087
7.89353
7.89414
7.89489
7.89883
7.89946
7.89964
7.89969
3.75051
3.7511
3.7524
3.75467
3.75856
3.76577
3.78249
3.85825
5.19759
5.28077
5.33982
6.11537
6.16746
6.20731
6.7197
6.7554
6.78608
7.2011
7.22695
7.23541
7.24829
7.42261
7.43478
7.44413
7.5592
7.5673
7.57334
7.64587
7.65084
7.653
7.65754
7.72591
7.73046
7.73374
7.77383
7.77665
7.77882
7.80541
7.80733
7.80898
7.83059
7.83197
7.83244
7.83312
7.84201
7.84265
7.84315
7.84915
7.84958
7.84992
7.85386
7.85414
7.85427
7.85455
7.85881
7.8591
7.85936
7.86271
7.86297
7.8633
7.86843
7.86872
7.86878
7.8688
)
;

boundaryField
{
    left
    {
        type            zeroGradient;
    }
    right
    {
        type            zeroGradient;
    }
    interface
    {
        type            fixedValue;
        value           nonuniform List<scalar> 
64
(
3.69673
3.69673
3.69673
3.69673
3.69673
3.69673
3.69673
3.69673
5.25601
5.25601
5.25601
6.15102
6.15102
6.15102
6.74106
6.74106
6.74106
7.22074
7.22074
7.22074
7.22074
7.4214
7.4214
7.4214
7.55357
7.55357
7.55357
7.63682
7.63682
7.63682
7.63682
7.71588
7.71588
7.71588
7.76193
7.76193
7.76193
7.79244
7.79244
7.79244
7.81736
7.81736
7.81736
7.81736
7.82757
7.82757
7.82757
7.83444
7.83444
7.83444
7.83897
7.83897
7.83897
7.83897
7.84388
7.84388
7.84388
7.84774
7.84774
7.84774
7.85371
7.85371
7.85371
7.85371
)
;
    }
    bottom
    {
        type            fixedValue;
        value           uniform 10;
    }
    defaultFaces
    {
        type            empty;
    }
}


// ************************************************************************* //
