/*--------------------------------*- C++ -*----------------------------------*\
| =========                 |                                                 |
| \\      /  F ield         | OpenFOAM: The Open Source CFD Toolbox           |
|  \\    /   O peration     | Version:  5.x                                   |
|   \\  /    A nd           | Web:      www.OpenFOAM.org                      |
|    \\/     M anipulation  |                                                 |
\*---------------------------------------------------------------------------*/
FoamFile
{
    version     2.0;
    format      ascii;
    class       volScalarField;
    location    "7.8";
    object      gradTy;
}
// * * * * * * * * * * * * * * * * * * * * * * * * * * * * * * * * * * * * * //

dimensions      [0 -1 0 1 0 0 0];

internalField   nonuniform List<scalar> 
2048
(
-20.1706
-20.074
-19.8818
-19.5962
-19.2209
-18.7608
-18.2227
-17.6151
-16.9479
-16.2324
-15.4805
-14.7046
-13.9164
-13.1273
-12.3473
-11.5851
-10.848
-10.1415
-9.46986
-8.83583
-8.2409
-7.68552
-7.16925
-6.69103
-6.24925
-5.84201
-5.46719
-5.12259
-4.80601
-4.51533
-4.24853
-4.00377
-3.77936
-3.57381
-3.38578
-3.21408
-3.0576
-2.91538
-2.78648
-2.67004
-2.56522
-2.47121
-2.38722
-2.31246
-2.24618
-2.18764
-2.13613
-2.09098
-2.05153
-2.01719
-1.98742
-1.96169
-1.93955
-1.92059
-1.90442
-1.89073
-1.87923
-1.86967
-1.86184
-1.85557
-1.85072
-1.84717
-1.84485
-1.8437
-20.2488
-20.1513
-19.9573
-19.6689
-19.2894
-18.8238
-18.2789
-17.6632
-16.987
-16.2618
-15.5
-14.7144
-13.9172
-13.1199
-12.3329
-11.5649
-10.8231
-10.1133
-9.43944
-8.80419
-8.2089
-7.65385
-7.13848
-6.66152
-6.22129
-5.81576
-5.44272
-5.0999
-4.78505
-4.49599
-4.23068
-3.98727
-3.76408
-3.55962
-3.37256
-3.20172
-3.04605
-2.90457
-2.77638
-2.66061
-2.55645
-2.46308
-2.37972
-2.30557
-2.23989
-2.18193
-2.13096
-2.08632
-2.04736
-2.01347
-1.98411
-1.95875
-1.93695
-1.91829
-1.90239
-1.88893
-1.87763
-1.86823
-1.86055
-1.85439
-1.84963
-1.84615
-1.84387
-1.84275
-20.3973
-20.2983
-20.101
-19.8073
-19.4201
-18.9442
-18.3863
-17.7551
-17.0614
-16.3176
-15.5368
-14.7326
-13.918
-13.1052
-12.3047
-11.5256
-10.7753
-10.0591
-9.38114
-8.74369
-8.14783
-7.59355
-7.07995
-6.60551
-6.16828
-5.76605
-5.39643
-5.05702
-4.74546
-4.45949
-4.19702
-3.95617
-3.73527
-3.53285
-3.3476
-3.17841
-3.02424
-2.88415
-2.75728
-2.64279
-2.53986
-2.4477
-2.36553
-2.29255
-2.228
-2.17113
-2.1212
-2.07754
-2.0395
-2.00646
-1.97787
-1.95322
-1.93206
-1.91396
-1.89856
-1.88554
-1.87461
-1.86554
-1.85812
-1.85218
-1.84758
-1.84423
-1.84203
-1.84095
-20.6079
-20.5068
-20.3052
-20.0042
-19.6064
-19.116
-18.5396
-17.8862
-17.1673
-16.3965
-15.5881
-14.7572
-13.9177
-13.0826
-12.263
-11.4683
-10.7058
-9.98093
-9.29735
-8.65705
-8.06068
-7.50772
-6.99686
-6.52617
-6.09336
-5.69592
-5.33124
-4.99672
-4.68986
-4.40829
-4.14984
-3.9126
-3.69491
-3.49532
-3.31261
-3.14569
-2.9936
-2.85546
-2.73043
-2.61771
-2.51652
-2.42606
-2.34557
-2.27423
-2.21129
-2.15596
-2.10751
-2.06523
-2.02848
-1.99664
-1.96915
-1.9455
-1.92523
-1.90793
-1.89323
-1.88082
-1.87042
-1.86179
-1.85474
-1.8491
-1.84474
-1.84156
-1.83948
-1.83845
-20.8732
-20.7698
-20.5632
-20.2538
-19.8432
-19.3348
-18.7349
-18.0529
-17.3015
-16.4956
-15.6516
-14.7861
-13.9146
-13.0511
-12.2074
-11.3931
-10.6156
-9.88008
-9.18986
-8.54644
-7.94986
-7.39902
-6.89199
-6.42633
-5.99932
-5.6081
-5.24978
-4.92154
-4.62067
-4.34467
-4.09128
-3.85854
-3.64482
-3.44873
-3.26912
-3.10499
-2.95545
-2.81969
-2.69693
-2.58641
-2.48737
-2.39904
-2.32065
-2.25139
-2.19046
-2.13707
-2.09047
-2.04994
-2.01481
-1.98447
-1.95835
-1.93594
-1.91678
-1.90048
-1.88665
-1.875
-1.86526
-1.85718
-1.85059
-1.84533
-1.84126
-1.83828
-1.83634
-1.83538
-21.1866
-21.0811
-20.8695
-20.5511
-20.1261
-19.5968
-18.969
-18.2525
-17.4613
-16.6124
-15.7248
-14.8172
-13.9071
-13.0096
-12.1373
-11.3
-10.5051
-9.75747
-9.06001
-8.41357
-7.81744
-7.26971
-6.76775
-6.30848
-5.88867
-5.50506
-5.15446
-4.83378
-4.54009
-4.27071
-4.02329
-3.79582
-3.5867
-3.39462
-3.21855
-3.0576
-2.91097
-2.77794
-2.65779
-2.54981
-2.45327
-2.36743
-2.29151
-2.22469
-2.16614
-2.11505
-2.07063
-2.03216
-1.99894
-1.97035
-1.94584
-1.92489
-1.90704
-1.89188
-1.87908
-1.86831
-1.85932
-1.85189
-1.84583
-1.84099
-1.83726
-1.83453
-1.83275
-1.83187
-21.5423
-21.435
-21.2189
-20.8917
-20.4517
-19.8995
-19.2398
-18.4829
-17.6445
-16.7446
-15.8054
-14.8484
-13.8933
-12.9567
-12.0517
-11.1886
-10.3744
-9.61373
-8.90887
-8.25991
-7.6652
-7.12186
-6.62635
-6.17489
-5.76368
-5.38905
-5.04746
-4.73555
-4.45014
-4.18835
-3.94768
-3.72611
-3.52207
-3.33439
-3.16217
-3.00467
-2.86123
-2.73118
-2.6139
-2.50872
-2.41498
-2.33193
-2.25881
-2.19476
-2.13892
-2.09044
-2.0485
-2.01234
-1.98128
-1.95468
-1.93197
-1.91265
-1.89626
-1.8824
-1.87073
-1.86095
-1.8528
-1.84608
-1.84061
-1.83624
-1.83288
-1.83042
-1.82882
-1.82802
-21.9343
-21.8259
-21.6067
-21.2719
-20.8173
-20.2409
-19.5458
-18.7426
-17.8494
-16.8902
-15.891
-14.8773
-13.8712
-12.8908
-11.9498
-11.0584
-10.2236
-9.44933
-8.73734
-8.08676
-7.49478
-6.95733
-6.46982
-6.02766
-5.62645
-5.26211
-4.93076
-4.62877
-4.35267
-4.09935
-3.86612
-3.65093
-3.45232
-3.26928
-3.10111
-2.94724
-2.80715
-2.68027
-2.56604
-2.46388
-2.37316
-2.29317
-2.22312
-2.16213
-2.1093
-2.06371
-2.0245
-1.99091
-1.96221
-1.93777
-1.91704
-1.8995
-1.8847
-1.87225
-1.86181
-1.85308
-1.84584
-1.83989
-1.83505
-1.8312
-1.82822
-1.82606
-1.82464
-1.82394
-22.357
-22.249
-22.0286
-21.6886
-21.2208
-20.6197
-19.8861
-19.0307
-18.0746
-17.047
-15.9794
-14.9016
-13.8388
-12.8104
-11.8305
-10.909
-10.0525
-9.26462
-8.54617
-7.89527
-7.30769
-6.77789
-6.30007
-5.86873
-5.4789
-5.1261
-4.80617
-4.51517
-4.24936
-4.00531
-3.78012
-3.57169
-3.3787
-3.20041
-3.03636
-2.88621
-2.74956
-2.62596
-2.51492
-2.41593
-2.3284
-2.25167
-2.18495
-2.12731
-2.07775
-2.0353
-1.99905
-1.96821
-1.94206
-1.91995
-1.90133
-1.88569
-1.87258
-1.86163
-1.85249
-1.84489
-1.8386
-1.83345
-1.82928
-1.82595
-1.82339
-1.82153
-1.82031
-1.8197
-22.8051
-22.6989
-22.4804
-22.1386
-21.6605
-21.0354
-20.2607
-19.3467
-18.3189
-17.2131
-16.0681
-14.9189
-13.794
-12.7139
-11.6927
-10.7399
-9.86131
-9.05994
-8.33607
-7.68657
-7.10542
-6.58527
-6.11893
-5.69995
-5.3228
-4.98271
-4.67529
-4.39633
-4.14175
-3.90773
-3.69108
-3.48964
-3.30233
-3.12876
-2.96881
-2.82237
-2.68919
-2.56892
-2.46115
-2.36541
-2.2812
-2.20793
-2.14477
-2.09072
-2.04468
-2.00559
-1.97251
-1.94459
-1.92112
-1.90147
-1.88507
-1.87143
-1.8601
-1.85071
-1.84293
-1.83649
-1.8312
-1.82688
-1.82339
-1.82061
-1.81848
-1.81692
-1.8159
-1.81539
-23.2729
-23.1708
-22.958
-22.6194
-22.1353
-21.4883
-20.6702
-19.691
-18.5813
-17.3865
-16.1545
-14.9266
-13.7346
-12.5999
-11.5358
-10.5508
-9.64991
-8.83559
-8.10768
-7.46172
-6.88943
-6.38117
-5.92817
-5.52305
-5.15981
-4.8335
-4.53959
-4.27364
-4.0312
-3.80796
-3.60027
-3.40592
-3.2242
-3.0552
-2.8992
-2.75639
-2.62667
-2.50974
-2.40525
-2.31281
-2.23201
-2.16233
-2.10295
-2.05274
-2.01045
-1.97494
-1.94519
-1.92034
-1.89967
-1.88257
-1.86848
-1.85691
-1.84743
-1.83965
-1.83326
-1.82802
-1.82374
-1.82026
-1.81747
-1.81525
-1.81354
-1.81229
-1.81147
-1.81106
-23.7549
-23.6594
-23.4574
-23.1282
-22.6444
-21.979
-21.1163
-20.0643
-18.8609
-17.565
-16.2357
-14.9219
-13.6585
-12.4671
-11.3591
-10.3416
-9.4185
-8.59186
-7.86159
-7.22181
-6.66122
-6.16729
-5.72955
-5.33971
-4.99143
-4.67983
-4.40036
-4.14834
-3.91898
-3.70727
-3.50889
-3.32156
-3.14516
-2.98043
-2.82815
-2.68885
-2.56254
-2.44892
-2.3477
-2.25856
-2.18119
-2.11523
-2.05984
-2.01371
-1.97542
-1.94366
-1.91738
-1.8957
-1.87793
-1.86345
-1.85174
-1.84231
-1.83472
-1.82859
-1.82361
-1.81957
-1.81631
-1.81369
-1.81159
-1.80993
-1.80864
-1.8077
-1.80708
-1.80677
-24.2454
-24.1597
-23.9744
-23.6626
-23.1872
-22.5091
-21.6012
-20.4679
-19.157
-17.7459
-16.3088
-14.9018
-13.5637
-12.3143
-11.1622
-10.1125
-9.16741
-8.32903
-7.5983
-6.96792
-6.42237
-5.94537
-5.52478
-5.15152
-4.81905
-4.52293
-4.25871
-4.0215
-3.80618
-3.60683
-3.41807
-3.23749
-3.06594
-2.90506
-2.75618
-2.62023
-2.49727
-2.38692
-2.28892
-2.20301
-2.12905
-2.06689
-2.01572
-1.97396
-1.93987
-1.91204
-1.88935
-1.87092
-1.85609
-1.84429
-1.835
-1.82775
-1.82209
-1.81763
-1.81407
-1.81124
-1.80899
-1.80722
-1.80582
-1.80471
-1.80384
-1.80319
-1.80277
-1.80256
-24.7388
-24.6664
-24.5046
-24.2198
-23.7636
-23.0809
-22.1284
-20.904
-19.4684
-17.9264
-16.3702
-14.8633
-13.4479
-12.1408
-10.945
-9.86372
-8.89717
-8.04728
-7.31819
-6.70114
-6.17457
-5.71719
-5.31555
-4.96
-4.64391
-4.36385
-4.11559
-3.89399
-3.69378
-3.50776
-3.32887
-3.15452
-2.98716
-2.82958
-2.68369
-2.55092
-2.43127
-2.32411
-2.22927
-2.14651
-2.07583
-2.01755
-1.97086
-1.93375
-1.90408
-1.88032
-1.86131
-1.84618
-1.83433
-1.82524
-1.8184
-1.81336
-1.80966
-1.80688
-1.80473
-1.80308
-1.80184
-1.80092
-1.80021
-1.79963
-1.79916
-1.79881
-1.79858
-1.79846
-25.2295
-25.1741
-25.0434
-24.7971
-24.3733
-23.6972
-22.7026
-21.3755
-19.7936
-18.1028
-16.4163
-14.8028
-13.3093
-11.9461
-10.7077
-9.59621
-8.60861
-7.74667
-7.02139
-6.42264
-5.91969
-5.48454
-5.10352
-4.76662
-4.4671
-4.20349
-3.97183
-3.76651
-3.5826
-3.41115
-3.24236
-3.07336
-2.90927
-2.75437
-2.61096
-2.48124
-2.36491
-2.26085
-2.16909
-2.08933
-2.02172
-1.96736
-1.92547
-1.89336
-1.86831
-1.84874
-1.83348
-1.82165
-1.81279
-1.80643
-1.80204
-1.79922
-1.79751
-1.79641
-1.79564
-1.79515
-1.79491
-1.79481
-1.79478
-1.79473
-1.79465
-1.79457
-1.79452
-1.7945
-25.7119
-25.6775
-25.5862
-25.391
-25.016
-24.3617
-23.33
-21.8865
-20.1305
-18.2705
-16.4432
-14.7168
-13.1461
-11.7305
-10.4508
-9.31113
-8.30296
-7.42695
-6.70771
-6.13366
-5.65988
-5.24923
-4.89031
-4.57284
-4.28951
-4.04257
-3.82811
-3.63954
-3.47332
-3.3181
-3.15964
-2.99456
-2.8326
-2.67971
-2.53817
-2.41142
-2.29854
-2.19743
-2.10869
-2.03177
-1.96684
-1.9164
-1.87974
-1.85304
-1.83278
-1.81751
-1.80604
-1.79747
-1.79159
-1.78795
-1.786
-1.78543
-1.78573
-1.78631
-1.78687
-1.7875
-1.78822
-1.78895
-1.78958
-1.79004
-1.79032
-1.79049
-1.79062
-1.79069
-26.1808
-26.1712
-26.1278
-25.9978
-25.6909
-25.0784
-24.0188
-22.4423
-20.4751
-18.424
-16.4473
-14.601
-12.9566
-11.4949
-10.1748
-9.01009
-7.98209
-7.08738
-6.37642
-5.83563
-5.39774
-5.01301
-4.67743
-4.38012
-4.11181
-3.88167
-3.68506
-3.51329
-3.36643
-3.22978
-3.08194
-2.91852
-2.75731
-2.60585
-2.46536
-2.34164
-2.23251
-2.13409
-2.04836
-1.97411
-1.91121
-1.86467
-1.83384
-1.81307
-1.79772
-1.78679
-1.77914
-1.77376
-1.77081
-1.76989
-1.77035
-1.77204
-1.77439
-1.77664
-1.77846
-1.78014
-1.78181
-1.78334
-1.78464
-1.78558
-1.78618
-1.78659
-1.78689
-1.78706
-26.6313
-26.6501
-26.6629
-26.6131
-26.3966
-25.852
-24.7792
-23.0509
-20.8215
-18.5562
-16.4255
-14.4505
-12.7393
-11.2416
-9.88027
-8.69516
-7.64885
-6.72642
-6.02606
-5.53027
-5.13649
-4.77737
-4.46626
-4.19006
-3.93434
-3.72116
-3.54333
-3.38764
-3.26219
-3.1475
-3.01066
-2.84536
-2.68339
-2.53304
-2.39242
-2.27203
-2.16724
-2.07099
-1.98839
-1.91671
-1.85477
-1.81209
-1.78795
-1.77375
-1.7633
-1.75676
-1.75296
-1.75058
-1.75053
-1.75233
-1.75513
-1.75908
-1.76355
-1.76745
-1.77042
-1.7731
-1.77569
-1.77802
-1.77996
-1.78137
-1.78225
-1.78287
-1.78334
-1.78361
-27.0588
-27.1093
-27.1862
-27.2317
-27.1309
-26.6869
-25.6245
-23.7229
-21.1595
-18.6586
-16.3766
-14.2592
-12.493
-10.9747
-9.5668
-8.36887
-7.3077
-6.34124
-5.65414
-5.21979
-4.88028
-4.54334
-4.25799
-4.00456
-3.75695
-3.56129
-3.40377
-3.26204
-3.16055
-3.07276
-2.94758
-2.77479
-2.61059
-2.46164
-2.31902
-2.20263
-2.10325
-2.00818
-1.92905
-1.86003
-1.79731
-1.75847
-1.74224
-1.73545
-1.72966
-1.72752
-1.72764
-1.72798
-1.73077
-1.73535
-1.74035
-1.74658
-1.75327
-1.75883
-1.76277
-1.76636
-1.76987
-1.77298
-1.77557
-1.77743
-1.77852
-1.77933
-1.77998
-1.78035
-27.4593
-27.5441
-27.6919
-27.8475
-27.8898
-27.5873
-26.5709
-24.4744
-21.4728
-18.7205
-16.3026
-14.0184
-12.2166
-10.701
-9.23244
-8.0342
-6.96564
-5.92691
-5.25687
-4.90713
-4.63471
-4.31102
-4.05354
-3.82613
-3.57875
-3.4021
-3.26767
-3.13532
-3.06111
-3.00741
-2.89506
-2.70592
-2.53847
-2.39228
-2.24451
-2.13344
-2.04131
-1.94549
-1.87062
-1.80476
-1.73843
-1.70344
-1.69696
-1.69863
-1.69687
-1.69918
-1.70339
-1.70595
-1.71158
-1.71902
-1.72601
-1.73454
-1.7436
-1.75083
-1.7555
-1.75992
-1.76436
-1.76823
-1.77149
-1.77377
-1.775
-1.77596
-1.77679
-1.77728
-27.8297
-27.9504
-28.1745
-28.4536
-28.6677
-28.556
-27.6385
-25.3289
-21.7355
-18.7297
-16.2115
-13.7157
-11.9091
-10.4318
-8.87206
-7.6945
-6.63372
-5.47526
-4.82876
-4.59637
-4.4074
-4.07892
-3.85347
-3.65842
-3.39773
-3.24349
-3.13714
-3.0054
-2.96294
-2.9537
-2.85633
-2.63684
-2.46631
-2.32616
-2.16774
-2.06442
-1.9826
-1.88238
-1.81337
-1.75194
-1.6774
-1.64653
-1.65241
-1.66392
-1.6649
-1.67177
-1.68042
-1.68441
-1.69294
-1.70346
-1.71204
-1.72294
-1.73463
-1.74355
-1.74858
-1.75375
-1.75917
-1.76378
-1.76772
-1.77042
-1.77166
-1.77275
-1.77379
-1.77443
-28.1673
-28.3247
-28.6286
-29.0424
-29.4569
-29.5937
-28.851
-26.3224
-21.9068
-18.6714
-16.1206
-13.3316
-11.5696
-10.1853
-8.475
-7.35344
-6.32933
-4.97305
-4.36239
-4.29305
-4.209
-3.84287
-3.65794
-3.50695
-3.21004
-3.08521
-3.01573
-2.86894
-2.86452
-2.91444
-2.83602
-2.56411
-2.39313
-2.26539
-2.08677
-1.99545
-1.92895
-1.81776
-1.75756
-1.70319
-1.61303
-1.58704
-1.60902
-1.63214
-1.63351
-1.64531
-1.65909
-1.66318
-1.67484
-1.68883
-1.69837
-1.71173
-1.72642
-1.73712
-1.74194
-1.74782
-1.75432
-1.7596
-1.76428
-1.76742
-1.76849
-1.76968
-1.77097
-1.77178
-28.4703
-28.6641
-29.0491
-29.6055
-30.2468
-30.6971
-30.2354
-27.5091
-21.9233
-18.5297
-16.063
-12.8355
-11.1973
-9.98993
-8.02155
-7.01489
-6.07944
-4.39925
-3.84831
-4.00465
-4.05449
-3.59451
-3.46669
-3.38028
-3.00901
-2.92687
-2.90921
-2.72061
-2.76359
-2.89301
-2.84084
-2.48198
-2.31771
-2.2136
-1.99841
-1.92636
-1.8832
-1.74958
-1.70345
-1.66103
-1.54343
-1.52413
-1.56736
-1.60448
-1.60219
-1.61976
-1.63989
-1.64194
-1.65724
-1.6754
-1.68481
-1.70085
-1.71907
-1.7317
-1.73547
-1.74206
-1.74983
-1.75569
-1.76119
-1.7648
-1.76545
-1.76674
-1.76834
-1.76936
-28.7378
-28.9667
-29.4316
-30.1344
-31.0247
-31.8577
-31.8199
-28.9718
-21.6887
-18.2875
-16.0941
-12.1791
-10.7916
-9.88974
-7.47786
-6.68283
-5.92532
-3.72109
-3.27535
-3.7409
-3.96503
-3.31907
-3.27904
-3.29166
-2.7837
-2.76803
-2.82684
-2.55226
-2.65718
-2.89338
-2.8806
-2.38123
-2.23869
-2.17674
-1.89753
-1.85697
-1.84978
-1.67439
-1.65127
-1.62929
-1.46562
-1.45677
-1.52822
-1.58254
-1.56999
-1.59505
-1.62362
-1.62012
-1.64009
-1.66357
-1.67111
-1.69021
-1.7127
-1.72756
-1.72897
-1.73643
-1.74577
-1.75201
-1.75846
-1.76265
-1.76247
-1.7639
-1.76591
-1.76718
-28.9695
-29.2312
-29.7724
-30.6205
-31.7749
-33.06
-33.6312
-30.8353
-21.0586
-17.9288
-16.3031
-11.2865
-10.3524
-9.95152
-6.78879
-6.36124
-5.92897
-2.88833
-2.63152
-3.51388
-3.97052
-2.99239
-3.09406
-3.26133
-2.51676
-2.60828
-2.78287
-2.35156
-2.54166
-2.91992
-2.96961
-2.24762
-2.15466
-2.16418
-1.77611
-1.7871
-1.83541
-1.58658
-1.60127
-1.61376
-1.37502
-1.38393
-1.4926
-1.56858
-1.53529
-1.57107
-1.61143
-1.59683
-1.62334
-1.65395
-1.65681
-1.6797
-1.70744
-1.72502
-1.72214
-1.73088
-1.74223
-1.74848
-1.75612
-1.76108
-1.75948
-1.76115
-1.76368
-1.76524
-29.1657
-29.4571
-30.0687
-31.056
-32.4802
-34.2793
-35.688
-33.2861
-19.82
-17.4409
-16.8266
-10.0421
-9.88086
-10.2745
-5.86819
-6.05408
-6.1818
-1.82531
-1.90611
-3.33754
-4.11316
-2.57679
-2.91086
-3.31953
-2.18152
-2.4475
-2.79875
-2.10015
-2.41313
-2.97694
-3.12866
-2.05973
-2.06444
-2.19017
-1.62183
-1.71671
-1.85011
-1.47743
-1.55369
-1.62295
-1.26469
-1.3047
-1.46168
-1.56573
-1.49554
-1.54774
-1.60507
-1.57066
-1.60696
-1.64743
-1.64126
-1.66922
-1.70342
-1.72459
-1.71454
-1.72535
-1.73937
-1.74501
-1.75417
-1.76023
-1.75634
-1.75848
-1.76167
-1.76355
-29.3277
-29.6449
-30.319
-31.4341
-33.122
-35.4806
-37.9914
-36.5989
-17.6652
-16.8186
-17.8665
-8.27224
-9.38084
-11.0033
-4.586
-5.76539
-6.81588
-0.420114
-1.09327
-3.22646
-4.45207
-2.01579
-2.72908
-3.51054
-1.73809
-2.28622
-2.90577
-1.77117
-2.26816
-3.06778
-3.38772
-1.78614
-1.96752
-2.27575
-1.41628
-1.64601
-1.90846
-1.33382
-1.50883
-1.66918
-1.12434
-1.21863
-1.4368
-1.57832
-1.44687
-1.52501
-1.60706
-1.53949
-1.59097
-1.64533
-1.62345
-1.65869
-1.70076
-1.72697
-1.70549
-1.71982
-1.73741
-1.74143
-1.75262
-1.76033
-1.75285
-1.75586
-1.75989
-1.76213
-29.4569
-29.7957
-30.5227
-31.7496
-33.682
-36.6183
-40.5103
-41.1722
-14.1563
-16.0703
-19.7122
-5.72263
-8.86095
-12.3436
-2.75179
-5.49962
-8.01832
1.48987
-0.197881
-3.19325
-5.06958
-1.22728
-2.54972
-3.89767
-1.1283
-2.12617
-3.14854
-1.32592
-2.10512
-3.1934
-3.78944
-1.38181
-1.86457
-2.45107
-1.13254
-1.57576
-2.03131
-1.13652
-1.46712
-1.76988
-0.938972
-1.12634
-1.41921
-1.61226
-1.3836
-1.50298
-1.62098
-1.5002
-1.57548
-1.64946
-1.60189
-1.64811
-1.69953
-1.73309
-1.69401
-1.71431
-1.73666
-1.73746
-1.75145
-1.76168
-1.74871
-1.75332
-1.75837
-1.76096
-29.5554
-29.9112
-30.6805
-31.9993
-34.1438
-37.637
-43.16
-47.5734
-8.68163
-15.2262
-22.7679
-2.02992
-8.33789
-14.5828
-0.094157
-5.26223
-10.0491
4.13657
0.755672
-3.24403
-6.07919
-0.0951101
-2.37621
-4.56944
-0.269305
-1.97121
-3.58905
-0.709561
-1.9263
-3.35
-4.39371
-0.783489
-1.75839
-2.75822
-0.732198
-1.50762
-2.2477
-0.858128
-1.42928
-1.94923
-0.687132
-1.03023
-1.40974
-1.67564
-1.29763
-1.48203
-1.65179
-1.44829
-1.56077
-1.66233
-1.57441
-1.63762
-1.69969
-1.7443
-1.6787
-1.7089
-1.73753
-1.73272
-1.75063
-1.76468
-1.74347
-1.75087
-1.75709
-1.76003
-29.6256
-29.9938
-30.7943
-32.1824
-34.4946
-38.4757
-45.7735
-56.5968
-0.401515
-14.3499
-27.5845
3.31346
-7.84112
-18.1133
3.76414
-5.06074
-13.2623
7.84467
1.71099
-3.37151
-7.63585
1.54124
-2.21598
-5.64693
0.954229
-1.82847
-4.31164
0.154334
-1.74102
-3.52575
-5.28349
0.0958798
-1.65497
-3.25466
-0.161662
-1.44474
-2.5973
-0.460545
-1.39649
-2.24012
-0.33872
-0.935659
-1.40834
-1.77939
-1.17772
-1.46291
-1.70624
-1.37744
-1.54738
-1.6873
-1.53798
-1.6276
-1.70099
-1.76236
-1.6576
-1.70378
-1.74057
-1.72662
-1.75007
-1.76988
-1.73652
-1.74857
-1.75605
-1.75928
-29.6699
-30.046
-30.8668
-32.3005
-34.7271
-39.0744
-48.0631
-69.3334
11.8164
-13.5528
-34.8955
11.0007
-7.41917
-23.4601
9.3354
-4.9062
-18.1317
13.0603
2.56268
-3.54487
-9.94857
3.89875
-2.08247
-7.29227
2.6994
-1.71008
-5.42859
1.3704
-1.57
-3.69615
-6.57186
1.37388
-1.56504
-4.01697
0.652192
-1.39243
-3.13317
0.10805
-1.37067
-2.68647
0.14769
-0.85249
-1.4132
-1.93812
-1.00858
-1.44704
-1.79324
-1.27899
-1.53626
-1.72877
-1.48835
-1.61886
-1.70285
-1.78968
-1.62804
-1.69931
-1.74646
-1.71837
-1.74963
-1.778
-1.72696
-1.74654
-1.7552
-1.75865
-29.6909
-30.0709
-30.9014
-32.3573
-34.8411
-39.3859
-49.5718
-87.2556
29.4734
-13.0131
-45.6571
21.9578
-7.14786
-31.3118
17.3003
-4.8153
-25.2791
20.3853
3.13424
-3.69592
-13.2959
7.26492
-1.99772
-9.71814
5.17566
-1.63533
-7.08653
3.07935
-1.45132
-3.81797
-8.4107
3.20634
-1.50603
-5.14527
1.8069
-1.3593
-3.92496
0.916446
-1.35506
-3.346
0.827847
-0.797269
-1.41995
-2.17145
-0.770093
-1.43695
-1.92466
-1.14155
-1.52919
-1.79267
-1.42006
-1.61304
-1.70445
-1.8297
-1.58666
-1.69633
-1.75626
-1.70712
-1.74933
-1.79018
-1.71383
-1.74516
-1.75463
-1.75824
)
;

boundaryField
{
    left
    {
        type            calculated;
        value           nonuniform List<scalar> 
32
(
-20.1706
-20.2488
-20.3973
-20.6079
-20.8732
-21.1866
-21.5423
-21.9343
-22.357
-22.8051
-23.2729
-23.7549
-24.2454
-24.7388
-25.2295
-25.7119
-26.1808
-26.6313
-27.0588
-27.4593
-27.8297
-28.1673
-28.4703
-28.7378
-28.9695
-29.1657
-29.3277
-29.4569
-29.5554
-29.6256
-29.6699
-29.6909
)
;
    }
    right
    {
        type            calculated;
        value           nonuniform List<scalar> 
32
(
-1.8437
-1.84275
-1.84095
-1.83845
-1.83538
-1.83187
-1.82802
-1.82394
-1.8197
-1.81539
-1.81106
-1.80677
-1.80256
-1.79846
-1.7945
-1.79069
-1.78706
-1.78361
-1.78035
-1.77728
-1.77443
-1.77178
-1.76936
-1.76718
-1.76524
-1.76355
-1.76213
-1.76096
-1.76003
-1.75928
-1.75865
-1.75824
)
;
    }
    interface
    {
        type            calculated;
        value           nonuniform List<scalar> 
64
(
-29.696
-30.0768
-30.9097
-32.371
-34.8688
-39.4651
-50.0616
-97.7237
39.8748
-12.8346
-52.0354
28.3857
-7.06134
-35.9611
21.9779
-4.78828
-29.5103
24.6612
3.32269
-3.75451
-15.2679
9.24096
-1.97092
-11.1563
6.62638
-1.6118
-8.07143
4.07715
-1.41113
-3.85997
-9.48943
4.28331
-1.48694
-5.81505
2.48335
-1.34885
-4.3947
1.39036
-1.35032
-3.73723
1.22432
-0.779215
-1.42307
-2.30957
-0.630678
-1.43377
-2.00316
-1.06148
-1.52696
-1.83107
-1.38049
-1.61114
-1.70507
-1.8534
-1.56257
-1.69537
-1.76232
-1.70065
-1.74923
-1.79747
-1.70625
-1.74471
-1.75445
-1.75812
)
;
    }
    bottom
    {
        type            calculated;
        value           nonuniform List<scalar> 
64
(
-20.1502
-20.0538
-19.8621
-19.5773
-19.203
-18.7443
-18.208
-17.6025
-16.9377
-16.2247
-15.4754
-14.702
-13.9162
-13.1292
-12.351
-11.5903
-10.8544
-10.1488
-9.47776
-8.84405
-8.24922
-7.69376
-7.17728
-6.69872
-6.25654
-5.84886
-5.47358
-5.12852
-4.8115
-4.52039
-4.2532
-4.00808
-3.78336
-3.57753
-3.38925
-3.21731
-3.06063
-2.91821
-2.78913
-2.67251
-2.56752
-2.47334
-2.38918
-2.31426
-2.24783
-2.18914
-2.13749
-2.09219
-2.05262
-2.01817
-1.98828
-1.96246
-1.94023
-1.92119
-1.90495
-1.8912
-1.87965
-1.87004
-1.86218
-1.85588
-1.851
-1.84744
-1.84511
-1.84396
)
;
    }
    defaultFaces
    {
        type            empty;
    }
}


// ************************************************************************* //
