/*--------------------------------*- C++ -*----------------------------------*\
| =========                 |                                                 |
| \\      /  F ield         | OpenFOAM: The Open Source CFD Toolbox           |
|  \\    /   O peration     | Version:  5.x                                   |
|   \\  /    A nd           | Web:      www.OpenFOAM.org                      |
|    \\/     M anipulation  |                                                 |
\*---------------------------------------------------------------------------*/
FoamFile
{
    version     2.0;
    format      ascii;
    class       volScalarField;
    location    "7.8";
    object      gradTx;
}
// * * * * * * * * * * * * * * * * * * * * * * * * * * * * * * * * * * * * * //

dimensions      [0 -1 0 1 0 0 0];

internalField   nonuniform List<scalar> 
2048
(
0.0221614
0.0662374
0.10955
0.151521
0.191495
0.228741
0.262501
0.292046
0.316753
0.336173
0.350075
0.358466
0.361577
0.359826
0.353773
0.344069
0.331407
0.316482
0.299957
0.282436
0.264448
0.246437
0.228756
0.211673
0.19538
0.180001
0.165603
0.15221
0.139807
0.128351
0.117778
0.108015
0.0989828
0.0906054
0.0828137
0.0755486
0.0687622
0.062417
0.0564852
0.050947
0.0457883
0.040999
0.036571
0.0324962
0.0287654
0.0253672
0.0222877
0.0195109
0.0170185
0.0147907
0.0128071
0.0110465
0.00948783
0.00811018
0.00689328
0.00581759
0.00486447
0.00401631
0.00325647
0.00256934
0.00194019
0.00135512
0.000800916
0.00026496
0.0657192
0.196447
0.324968
0.449591
0.568365
0.679104
0.779509
0.867367
0.94078
0.99838
1.03947
1.06409
1.07294
1.0673
1.04887
1.01961
0.9816
0.936929
0.887575
0.835341
0.7818
0.728262
0.67577
0.62511
0.57684
0.531318
0.488737
0.449156
0.412524
0.378708
0.347514
0.318717
0.292079
0.26737
0.244384
0.222946
0.202915
0.18418
0.16666
0.1503
0.135057
0.120906
0.107822
0.0957832
0.0847632
0.0747286
0.0656384
0.0574444
0.0500923
0.0435235
0.0376768
0.0324895
0.0278988
0.0238429
0.0202615
0.0170969
0.0142938
0.0118001
0.00956679
0.00754759
0.00569912
0.00398037
0.00235248
0.000778262
0.10791
0.32263
0.533913
0.739049
0.93483
1.11759
1.2834
1.42845
1.54948
1.64411
1.71119
1.75078
1.76415
1.75351
1.72175
1.67222
1.6084
1.53378
1.45167
1.36506
1.27652
1.18822
1.10185
1.01866
0.939539
0.865046
0.795471
0.730886
0.671186
0.616133
0.565392
0.518572
0.475271
0.435101
0.397719
0.362836
0.330221
0.299699
0.271142
0.244462
0.219599
0.196511
0.175167
0.155533
0.137568
0.121218
0.106416
0.0930825
0.0811275
0.0704539
0.0609603
0.0525435
0.0451001
0.0385285
0.0327299
0.0276093
0.0230766
0.0190465
0.0154389
0.0121787
0.00919512
0.00642149
0.00379524
0.00125569
0.149016
0.445673
0.737972
1.02232
1.29428
1.54861
1.77961
1.98162
2.1498
2.28067
2.37253
2.42558
2.44174
2.42431
2.37752
2.30616
2.21525
2.10972
1.99422
1.87293
1.74945
1.62674
1.50709
1.39218
1.28318
1.18078
1.08534
0.996916
0.915323
0.840194
0.771029
0.707256
0.648288
0.593571
0.542622
0.49504
0.450514
0.408809
0.369758
0.333251
0.299216
0.267605
0.238385
0.211516
0.186946
0.164604
0.144395
0.126209
0.10992
0.0953906
0.082481
0.0710472
0.0609462
0.0520371
0.0441837
0.0372551
0.0311273
0.0256833
0.0208137
0.0164155
0.0123923
0.00865322
0.00511421
0.00169235
0.189196
0.56609
0.938138
1.30104
1.64915
1.97555
2.27244
2.53201
2.74748
2.91406
3.02949
3.0942
3.11095
3.08434
3.02013
2.92475
2.80482
2.66678
2.5167
2.35997
2.20121
2.04415
1.89161
1.74564
1.60761
1.4783
1.3581
1.24699
1.1447
1.05069
0.964265
0.884652
0.811051
0.74273
0.67906
0.619533
0.563764
0.511469
0.462456
0.416597
0.373819
0.334081
0.297353
0.263599
0.232758
0.204744
0.179436
0.156689
0.13634
0.118213
0.102127
0.087899
0.0753453
0.0642872
0.0545515
0.0459724
0.038393
0.0316663
0.0256546
0.020229
0.0152688
0.0106604
0.00630043
0.00208521
0.228486
0.684044
1.13484
1.57611
2.00107
2.4009
2.76531
3.08382
3.34729
3.54932
3.68706
3.76132
3.77598
3.73725
3.65267
3.5305
3.37907
3.20645
3.02017
2.82689
2.63224
2.44068
2.25551
2.07906
1.9128
1.75756
1.61367
1.48104
1.35925
1.24758
1.14512
1.05081
0.963646
0.882679
0.807137
0.736412
0.670054
0.607746
0.549277
0.494518
0.443405
0.395911
0.352025
0.31172
0.274935
0.241565
0.211463
0.184449
0.16032
0.138858
0.119841
0.103045
0.0882495
0.0752366
0.0637966
0.0537298
0.0448475
0.0369736
0.029944
0.0236055
0.0178144
0.012436
0.00734979
0.0024329
0.266806
0.799356
1.32798
1.84778
2.3509
2.82636
3.26089
3.64061
3.95338
4.19081
4.34946
4.43077
4.44018
4.38584
4.27744
4.12523
3.9394
3.72975
3.50533
3.27412
3.04279
2.81648
2.5989
2.39251
2.19882
2.0186
1.8521
1.69912
1.55907
1.43101
1.31374
1.20594
1.10629
1.01364
0.927069
0.845872
0.769557
0.697785
0.630341
0.567106
0.508035
0.453131
0.402413
0.355876
0.313462
0.275048
0.240458
0.209471
0.181841
0.157307
0.135605
0.116472
0.0996465
0.0848749
0.0719109
0.0605209
0.0504858
0.0416017
0.0336795
0.0265433
0.0200281
0.0139796
0.00826211
0.00273536
0.303966
0.911524
1.51695
2.11564
2.69879
3.25303
3.76131
4.20544
4.56939
4.84234
5.0203
5.10573
5.10615
5.03222
4.89608
4.7102
4.48676
4.23732
3.97254
3.70185
3.43295
3.17163
2.92186
2.68612
2.46581
2.26159
2.07358
1.90142
1.74435
1.60119
1.47042
1.35034
1.23931
1.13594
1.03916
0.948189
0.862515
0.781797
0.705829
0.63451
0.567826
0.505827
0.448579
0.39611
0.348371
0.30522
0.266444
0.231777
0.200924
0.173579
0.149438
0.128195
0.109552
0.0932171
0.0789086
0.0663593
0.0553203
0.0455616
0.0368707
0.0290505
0.0219163
0.0152959
0.00904028
0.00299355
0.339667
1.01973
1.70063
2.37865
3.04427
3.68135
4.26822
4.78104
5.1987
5.5074
5.70271
5.78876
5.77588
5.67785
5.50967
5.28621
5.02168
4.72947
4.42195
4.11008
3.8027
3.50615
3.22449
2.96005
2.71401
2.4868
2.27835
2.08819
1.91538
1.75846
1.61552
1.48442
1.36313
1.24999
1.14378
1.04369
0.949219
0.860037
0.775962
0.696918
0.622934
0.554121
0.490615
0.432496
0.379725
0.33214
0.289479
0.251421
0.217621
0.187725
0.161384
0.138255
0.118003
0.100298
0.0848217
0.0712738
0.0593766
0.0488754
0.0395364
0.0311426
0.0234913
0.0163937
0.00968958
0.00320923
0.373515
1.12286
1.87744
2.63517
3.38618
4.11125
4.78292
5.36994
5.84455
6.18923
6.39947
6.48194
6.45076
6.32362
6.11877
5.85363
5.54441
5.20628
4.85346
4.49865
4.15191
3.82001
3.50691
3.21458
2.94375
2.69456
2.46678
2.25979
2.07251
1.9032
1.7495
1.60868
1.47825
1.35624
1.24135
1.13275
1.02999
0.932795
0.840998
0.754555
0.673544
0.598159
0.528637
0.46513
0.407614
0.355892
0.309645
0.268486
0.23201
0.199815
0.171509
0.146713
0.125054
0.106167
0.0896958
0.0753052
0.0626902
0.0515737
0.0417023
0.0328409
0.0247697
0.0172848
0.0102171
0.00338473
0.405027
1.21955
2.04535
2.88297
3.72272
4.54209
5.30641
5.97467
6.5102
6.89097
7.11302
7.18683
7.13161
6.96988
6.72354
6.41254
6.05497
5.66767
5.26683
4.86725
4.48035
4.1132
3.76932
3.45001
3.15544
2.88533
2.63927
2.4166
2.21612
2.03585
1.87284
1.72367
1.58521
1.45523
1.33233
1.21576
1.10519
1.00038
0.901212
0.807666
0.719864
0.638106
0.562774
0.494123
0.432143
0.376584
0.327049
0.283074
0.244188
0.209938
0.179893
0.15364
0.130772
0.110886
0.0935864
0.0785027
0.0653039
0.0536929
0.043399
0.0341704
0.025771
0.0179833
0.0106311
0.0035228
0.433652
1.3082
2.20193
3.11921
4.05144
4.97272
5.83949
6.59783
7.19909
7.6157
7.84549
7.90453
7.81871
7.61649
7.32373
6.96276
6.55326
6.11346
5.66171
5.21544
4.78774
4.38569
4.01193
3.6668
3.3496
3.05962
2.79632
2.55905
2.34662
2.15685
1.98612
1.83001
1.68464
1.5475
1.41719
1.29313
1.17514
1.0631
0.956896
0.856516
0.762118
0.674135
0.593162
0.519595
0.45343
0.394334
0.341812
0.295305
0.254267
0.218197
0.186629
0.159119
0.135231
0.114524
0.0965567
0.0809222
0.0672654
0.0552733
0.0446603
0.035159
0.0265171
0.0185045
0.0109407
0.00362639
0.458791
1.38704
2.34437
3.34049
4.36917
5.40137
6.38279
7.24233
7.91494
8.36651
8.59873
8.63565
8.51177
8.26282
7.91877
7.50393
7.03913
6.54346
6.03762
5.54267
5.07377
4.63753
4.23509
3.86546
3.52686
3.21803
2.93845
2.68758
2.46441
2.26668
2.08993
1.92837
1.77718
1.63362
1.4964
1.36523
1.2402
1.12128
1.00835
0.901384
0.800543
0.706425
0.619933
0.541667
0.471601
0.409278
0.354072
0.30531
0.262368
0.224703
0.191815
0.163238
0.138512
0.117155
0.0986748
0.0826234
0.0686255
0.0563573
0.0455218
0.0358362
0.0270312
0.0188649
0.0111553
0.00369856
0.479823
1.45419
2.46962
3.54289
4.672
5.82565
6.93679
7.91151
8.662
9.14651
9.37426
9.38026
9.20988
8.90778
8.5078
8.03557
7.51249
6.95753
6.39401
5.84822
5.33805
4.86879
4.43921
4.04665
3.68796
3.36125
3.06626
2.80267
2.56986
2.36578
2.18491
2.0195
1.86353
1.71418
1.57046
1.43245
1.30069
1.17522
1.05587
0.942561
0.835389
0.735149
0.643211
0.560457
0.48679
0.421558
0.363975
0.313234
0.268625
0.229573
0.195556
0.166087
0.140695
0.118857
0.100013
0.0836685
0.0694359
0.056988
0.0460196
0.0362322
0.0273373
0.019081
0.0112844
0.00374231
0.49614
1.50779
2.57444
3.72199
4.95524
6.24236
7.50183
8.60941
9.44517
9.95881
10.1732
10.1379
9.91152
9.54984
9.08975
8.5571
7.97339
7.3557
6.73023
6.1312
5.58019
5.07967
4.62483
4.21117
3.83373
3.49001
3.18035
2.90476
2.66327
2.45455
2.27174
2.10421
1.94438
1.78976
1.63979
1.49512
1.35692
1.22523
1.09975
0.980355
0.866923
0.760473
0.663099
0.576077
0.499137
0.431324
0.371676
0.319226
0.273172
0.23293
0.197957
0.167758
0.141864
0.119709
0.100644
0.0841208
0.0697482
0.0572077
0.0461893
0.0363777
0.0274597
0.0191695
0.011337
0.00376042
0.507182
1.54603
2.65554
3.873
5.21335
6.64739
8.07808
9.34107
10.2703
10.8063
10.9963
10.9077
10.6145
10.1871
9.66342
9.06791
8.42217
7.7383
7.0455
6.39046
5.79981
5.27054
4.7926
4.35993
3.96517
3.60508
3.28141
2.99433
2.74486
2.5333
2.35117
2.1834
2.02048
1.86095
1.70485
1.55353
1.40915
1.27159
1.14028
1.01509
0.895431
0.782547
0.679671
0.588633
0.508787
0.438735
0.37734
0.323445
0.276146
0.234893
0.199125
0.168337
0.142098
0.119792
0.100647
0.0840435
0.0696125
0.0570569
0.0460653
0.0363029
0.027423
0.0191466
0.0113214
0.00375536
0.512471
1.5673
2.70976
3.99084
5.43991
7.03544
8.6654
10.1129
11.1443
11.6917
11.8436
11.688
11.3157
10.8173
10.2275
9.56724
8.85957
8.1061
7.33881
6.62445
5.99655
5.44196
4.94325
4.49399
4.08336
3.70724
3.37013
3.07185
2.81468
2.60226
2.42402
2.25809
2.09252
1.92829
1.76603
1.60789
1.45762
1.31457
1.17771
1.04712
0.92123
0.801494
0.692963
0.598222
0.5159
0.44395
0.381136
0.326053
0.277683
0.235585
0.199165
0.167908
0.14147
0.119187
0.100099
0.0834986
0.069076
0.0565734
0.0456802
0.0360381
0.0272522
0.0190277
0.0112449
0.00372906
0.51165
1.5703
2.73419
4.07031
5.6276
7.39972
9.26309
10.9333
12.0757
12.6165
12.7147
12.477
12.0112
11.4381
10.7809
10.0541
9.28689
8.46055
7.60884
6.8311
6.1702
5.59483
5.07753
4.61455
4.18955
3.79723
3.4473
3.13785
2.8726
2.66144
2.49125
2.32944
2.16114
1.99229
1.82372
1.65831
1.50255
1.35446
1.21227
1.07681
0.944689
0.8174
0.702948
0.604938
0.520653
0.447133
0.383239
0.327222
0.277913
0.235125
0.198183
0.166543
0.140048
0.117977
0.0990813
0.0825458
0.0681819
0.0557919
0.0450636
0.035613
0.0269725
0.0188274
0.0111131
0.00368278
0.504514
1.55413
2.72641
4.10632
5.76822
7.73157
9.86957
11.8133
13.0753
13.5809
13.6084
13.2728
12.6956
12.0469
11.3227
10.527
9.70623
8.80408
7.85368
7.0076
6.32079
5.73051
5.19612
4.72297
4.2852
3.87562
3.51377
3.19297
2.91821
2.71063
2.55402
2.39885
2.22686
2.05345
1.87832
1.7048
1.54413
1.39153
1.24411
1.10461
0.966251
0.830292
0.709527
0.608882
0.523253
0.448438
0.383826
0.327128
0.276955
0.233628
0.196284
0.164309
0.137887
0.116245
0.0976806
0.0812408
0.0669687
0.0547429
0.044242
0.0350576
0.0266102
0.0185584
0.0109296
0.00361696
0.491028
1.51836
2.68463
4.09413
5.85284
8.02005
10.4816
12.7675
14.1562
14.5822
14.523
14.0737
13.362
12.6415
11.8526
10.9833
10.1207
9.14058
8.07056
7.15004
6.44883
5.85103
5.29939
4.82079
4.37201
3.94269
3.57055
3.23807
2.95072
2.74924
2.61382
2.468
2.28996
2.11223
1.93027
1.74712
1.58257
1.42613
1.27325
1.13101
0.986477
0.84011
0.712493
0.610172
0.523954
0.447999
0.38308
0.325959
0.274907
0.231207
0.193581
0.161253
0.13503
0.114078
0.0959888
0.079633
0.0654687
0.0534535
0.0432379
0.0344023
0.026193
0.0182317
0.0106955
0.00353107
0.471343
1.46312
2.60789
4.02969
5.87198
8.2514
11.0935
13.8156
15.3353
15.613
15.4567
14.8792
14.0006
13.2205
12.3714
11.4187
10.5348
9.47596
8.25534
7.2531
6.55564
5.95929
5.38711
4.90984
4.45207
3.99819
3.61885
3.27438
2.96882
2.77618
2.67258
2.539
2.35024
2.16908
1.98014
1.78479
1.6181
1.45869
1.2995
1.1566
1.0061
0.846668
0.711508
0.608973
0.523075
0.445913
0.381189
0.323925
0.271838
0.227974
0.190195
0.157407
0.1315
0.111573
0.0941079
0.077763
0.063708
0.0519471
0.0420681
0.0336785
0.0257512
0.0178553
0.0104089
0.00342354
0.445794
1.38913
2.4962
3.90993
5.816
8.40867
11.6952
14.9842
16.6347
16.6588
16.4078
15.6911
14.5976
13.7838
12.8819
11.8255
10.9549
9.81904
8.40186
7.30951
6.6438
6.05947
5.45788
4.99229
4.5281
4.04096
3.66022
3.30372
2.97052
2.78963
2.73292
2.61454
2.40685
2.22452
2.02871
1.81686
1.65107
1.4898
1.32237
1.18213
1.0261
0.849585
0.706057
0.605528
0.521027
0.4422
0.378351
0.321265
0.267767
0.224041
0.186267
0.152778
0.127297
0.108836
0.0921534
0.0756567
0.0617058
0.0502452
0.0407429
0.0329201
0.0253191
0.0174332
0.0100646
0.00329184
0.414886
1.29765
2.35061
3.73317
5.67565
8.47133
12.2703
16.3089
18.0828
17.6936
17.3762
16.5152
15.1332
14.3335
13.3897
12.1911
11.3903
10.1827
8.50089
7.30951
6.71781
6.15746
5.50835
5.07096
4.60371
4.0684
3.69672
3.32884
2.95289
2.78679
2.79843
2.69806
2.45777
2.27924
2.0772
1.8417
1.68203
1.52032
1.34079
1.20855
1.04782
0.848207
0.695409
0.600209
0.518354
0.436756
0.374782
0.318268
0.26264
0.219528
0.181969
0.147339
0.12239
0.105994
0.0902598
0.0733195
0.059475
0.0483689
0.0392625
0.0321648
0.0249365
0.016964
0.00965359
0.00313259
0.379273
1.19048
2.17326
3.49942
5.44277
8.41527
12.7924
17.8374
19.7178
18.6749
18.3651
17.3634
15.578
14.8758
13.9046
12.4946
11.8536
10.5853
8.53889
7.24017
6.78497
6.26143
5.53213
5.14965
4.68389
4.07572
3.73118
3.35379
2.91177
2.76352
2.87402
2.79412
2.49933
2.33429
2.12743
1.85669
1.71187
1.55158
1.35295
1.2371
1.07309
0.841479
0.678568
0.593582
0.51577
0.429282
0.370738
0.315301
0.256289
0.21457
0.177519
0.141019
0.116708
0.103198
0.0885876
0.0707254
0.057024
0.0463423
0.0376142
0.0314558
0.0246515
0.0164385
0.00916355
0.002942
0.339719
1.06984
1.96735
3.21065
5.11125
8.21315
13.2212
19.6338
21.5903
19.5357
19.3838
18.2575
15.8889
15.4229
14.4435
12.7036
12.363
11.0525
8.49618
7.08468
6.85641
6.38262
5.5182
5.2337
4.77562
4.05484
3.76761
3.38449
2.84139
2.71392
2.96644
2.9087
2.52535
2.39136
2.18223
1.85771
1.74205
1.58553
1.35583
1.2695
1.10441
0.827783
0.654227
0.586488
0.514218
0.419182
0.366543
0.312843
0.248389
0.209335
0.173207
0.133686
0.110132
0.100641
0.0873316
0.0678038
0.0543601
0.0441969
0.035766
0.0308446
0.0245226
0.0158364
0.00857891
0.00271641
0.29706
0.938273
1.73699
2.87096
4.67808
7.83559
13.4954
21.7824
23.7687
20.1749
20.4523
19.2325
16.0022
15.9956
15.0323
12.7682
12.9439
11.6197
8.34465
6.8216
6.94846
6.53627
5.44881
5.33086
4.88873
3.99297
3.81173
3.42932
2.73391
2.62975
3.08481
3.04975
2.52612
2.4532
2.24579
1.83849
1.77486
1.62507
1.34472
1.3081
1.14514
0.804722
0.620719
0.580143
0.514937
0.405424
0.362634
0.311532
0.238378
0.204047
0.169411
0.125129
0.102484
0.0985643
0.086731
0.0644207
0.051495
0.0419769
0.0336592
0.0303945
0.0246227
0.0151222
0.00788217
0.00245303
0.252165
0.798526
1.48706
2.48663
4.14444
7.25331
13.5252
24.3941
26.3452
20.444
21.6064
20.3427
15.8255
16.6279
15.7104
12.6142
13.632
12.3347
8.04485
6.42414
7.08415
6.7429
5.29674
5.45243
5.03701
3.87063
3.87169
3.49985
2.57885
2.49982
3.24134
3.22782
2.48702
2.52423
2.32424
1.78974
1.81385
1.67443
1.31255
1.35617
1.19978
0.768843
0.575996
0.576254
0.519543
0.38637
0.359631
0.31223
0.225373
0.199016
0.166634
0.115034
0.0935138
0.0972779
0.0870825
0.0603552
0.0484536
0.0397474
0.031198
0.0301851
0.0250429
0.0142396
0.00705559
0.0021508
0.205888
0.653389
1.2229
2.06591
3.51682
6.44077
13.1822
27.6126
29.4439
20.1301
22.9061
21.6673
15.2264
17.3717
16.5349
12.1344
14.4772
13.2603
7.54236
5.85967
7.29485
7.02983
5.02182
5.61486
5.23951
3.65925
3.95919
3.61171
2.3625
2.30923
3.45207
3.45692
2.38673
2.61132
2.42631
1.69795
1.86435
1.73961
1.249
1.41832
1.27423
0.715284
0.517616
0.577143
0.53013
0.359544
0.35843
0.316086
0.208046
0.194692
0.165532
0.102949
0.0828918
0.0971761
0.0887549
0.0552682
0.0452871
0.0376024
0.0282354
0.0303188
0.0258972
0.0131038
0.0060839
0.00181117
0.159039
0.505574
0.950062
1.61864
2.80774
5.38155
12.2856
31.6219
33.231
18.9362
24.4459
23.3187
14.0188
18.3033
17.5869
11.177
15.5485
14.4782
6.76351
5.08938
7.62204
7.43308
4.56661
5.84177
5.52224
3.31811
4.09072
3.78534
2.0672
2.03855
3.73772
3.75547
2.19509
2.72489
2.56409
1.54403
1.93417
1.829
1.13945
1.50092
1.37609
0.637358
0.442773
0.585869
0.549391
0.321362
0.360328
0.324632
0.184476
0.191726
0.166949
0.0882475
0.0701954
0.0987575
0.0922071
0.0486651
0.0420898
0.0356754
0.024556
0.030928
0.027328
0.0115926
0.00495804
0.00143864
0.112349
0.357599
0.673996
1.15575
2.03605
4.07589
10.5878
36.6542
37.9278
16.4555
26.3669
25.4503
11.9456
19.5323
18.9778
9.53257
16.941
16.092
5.61034
4.06837
8.11892
7.99971
3.85131
6.16658
5.92002
2.79064
4.28938
4.04688
1.67059
1.66289
4.12455
4.14766
1.87053
2.88018
2.75393
1.3015
2.03443
1.95398
0.963631
1.61278
1.51501
0.526053
0.348372
0.606354
0.58076
0.2668
0.36719
0.339866
0.151972
0.191055
0.17195
0.070089
0.0549027
0.102644
0.0980093
0.0398509
0.0390219
0.0341504
0.0198549
0.0321852
0.0295114
0.00953505
0.00368006
0.00104088
0.0664564
0.211697
0.399774
0.688476
1.22642
2.55087
7.75524
42.9993
43.8253
12.1432
28.8734
28.267
8.65912
21.2109
20.8574
6.91813
18.783
18.2308
3.95492
2.74626
8.85186
8.79065
2.7677
6.63556
6.47863
2.00012
4.58699
4.42891
1.14489
1.15099
4.64523
4.66491
1.35698
3.0989
3.01747
0.93448
2.18058
2.12975
0.694147
1.76593
1.70295
0.369462
0.231165
0.643475
0.628586
0.18901
0.381647
0.364362
0.106857
0.19401
0.181848
0.0473663
0.0363883
0.109598
0.106867
0.0278767
0.0363382
0.033274
0.0137122
0.0343151
0.0326637
0.00669787
0.00226943
0.000628024
0.0218896
0.069758
0.131854
0.227546
0.407732
0.873193
3.34836
51.0126
51.3027
5.28246
32.2504
32.0347
3.69828
23.5456
23.423
2.95924
21.2464
21.0519
1.63317
1.06848
9.90137
9.88404
1.17231
7.31156
7.25712
0.844744
5.02678
4.97095
0.456179
0.464294
5.33956
5.34765
0.580395
3.41113
3.38263
0.39531
2.39366
2.37612
0.294704
1.97653
1.95449
0.152156
0.0879561
0.703124
0.698331
0.0788822
0.407339
0.401367
0.0442317
0.20245
0.198228
0.018655
0.0139239
0.12054
0.119648
0.0114804
0.0344224
0.0333668
0.00556466
0.0376087
0.037047
0.00277029
0.000770705
0.000211055
)
;

boundaryField
{
    left
    {
        type            calculated;
        value           uniform 0;
    }
    right
    {
        type            calculated;
        value           uniform 0;
    }
    interface
    {
        type            calculated;
        value           nonuniform List<scalar> 
64
(
0.0218896
0.069758
0.131854
0.227546
0.407732
0.873193
3.34836
51.0126
51.3027
5.28246
32.2504
32.0347
3.69828
23.5456
23.423
2.95924
21.2464
21.0519
1.63317
1.06848
9.90137
9.88404
1.17231
7.31156
7.25712
0.844744
5.02678
4.97095
0.456179
0.464294
5.33956
5.34765
0.580395
3.41113
3.38263
0.39531
2.39366
2.37612
0.294704
1.97653
1.95449
0.152156
0.0879561
0.703124
0.698331
0.0788822
0.407339
0.401367
0.0442317
0.20245
0.198228
0.018655
0.0139239
0.12054
0.119648
0.0114804
0.0344224
0.0333668
0.00556466
0.0376087
0.037047
0.00277029
0.000770705
0.000211055
)
;
    }
    bottom
    {
        type            calculated;
        value           nonuniform List<scalar> 
64
(
0.0221614
0.0662374
0.10955
0.151521
0.191495
0.228741
0.262501
0.292046
0.316753
0.336173
0.350075
0.358466
0.361577
0.359826
0.353773
0.344069
0.331407
0.316482
0.299957
0.282436
0.264448
0.246437
0.228756
0.211673
0.19538
0.180001
0.165603
0.15221
0.139807
0.128351
0.117778
0.108015
0.0989828
0.0906054
0.0828137
0.0755486
0.0687622
0.062417
0.0564852
0.050947
0.0457883
0.040999
0.036571
0.0324962
0.0287654
0.0253672
0.0222877
0.0195109
0.0170185
0.0147907
0.0128071
0.0110465
0.00948783
0.00811018
0.00689328
0.00581759
0.00486447
0.00401631
0.00325647
0.00256934
0.00194019
0.00135512
0.000800916
0.00026496
)
;
    }
    defaultFaces
    {
        type            empty;
    }
}


// ************************************************************************* //
