/*--------------------------------*- C++ -*----------------------------------*\
| =========                 |                                                 |
| \\      /  F ield         | OpenFOAM: The Open Source CFD Toolbox           |
|  \\    /   O peration     | Version:  5.x                                   |
|   \\  /    A nd           | Web:      www.OpenFOAM.org                      |
|    \\/     M anipulation  |                                                 |
\*---------------------------------------------------------------------------*/
FoamFile
{
    version     2.0;
    format      ascii;
    class       volScalarField;
    location    "7.8";
    object      T;
}
// * * * * * * * * * * * * * * * * * * * * * * * * * * * * * * * * * * * * * //

dimensions      [0 0 0 1 0 0 0];

internalField   nonuniform List<scalar> 
2048
(
9.85524
9.85593
9.85731
9.85935
9.86204
9.86534
9.86919
9.87354
9.87831
9.88344
9.88882
9.89438
9.90002
9.90568
9.91127
9.91673
9.92202
9.92709
9.93191
9.93646
9.94074
9.94473
9.94844
9.95187
9.95505
9.95798
9.96068
9.96316
9.96543
9.96752
9.96944
9.9712
9.97282
9.9743
9.97565
9.97689
9.97801
9.97903
9.97996
9.9808
9.98155
9.98223
9.98284
9.98337
9.98385
9.98427
9.98464
9.98497
9.98525
9.9855
9.98572
9.9859
9.98606
9.9862
9.98631
9.98641
9.9865
9.98657
9.98662
9.98667
9.9867
9.98673
9.98674
9.98675
9.57146
9.57352
9.5776
9.58367
9.59165
9.60143
9.61288
9.62579
9.63998
9.65519
9.67118
9.68768
9.70443
9.72121
9.73779
9.75398
9.76965
9.78466
9.79893
9.8124
9.82503
9.83683
9.84779
9.85794
9.86732
9.87597
9.88393
9.89124
9.89796
9.90414
9.9098
9.915
9.91976
9.92412
9.92811
9.93176
9.93508
9.9381
9.94084
9.94331
9.94553
9.94753
9.94931
9.9509
9.95231
9.95355
9.95464
9.9556
9.95644
9.95716
9.9578
9.95834
9.95881
9.95921
9.95956
9.95985
9.96009
9.96029
9.96046
9.96059
9.9607
9.96077
9.96082
9.96084
9.29855
9.30192
9.30863
9.31861
9.33173
9.34782
9.36665
9.38793
9.41129
9.43635
9.46267
9.48982
9.51738
9.54495
9.57218
9.59876
9.62444
9.64902
9.67237
9.69438
9.71503
9.73428
9.75216
9.76871
9.78399
9.79807
9.81102
9.82293
9.83386
9.8439
9.85312
9.86157
9.86932
9.87642
9.88292
9.88885
9.89426
9.89917
9.90362
9.90764
9.91126
9.91451
9.9174
9.91998
9.92226
9.92428
9.92605
9.92761
9.92896
9.93014
9.93116
9.93205
9.93281
9.93346
9.93401
9.93448
9.93487
9.9352
9.93547
9.93568
9.93585
9.93597
9.93605
9.93609
9.03524
9.0399
9.04917
9.06296
9.08112
9.1034
9.12951
9.15902
9.19143
9.2262
9.26271
9.30034
9.33851
9.37664
9.41426
9.45094
9.48633
9.52017
9.55226
9.58249
9.61079
9.63716
9.66163
9.68426
9.70513
9.72435
9.74203
9.75827
9.77318
9.78688
9.79944
9.81097
9.82154
9.83123
9.84009
9.84819
9.85556
9.86226
9.86834
9.87382
9.87875
9.88317
9.88711
9.89062
9.89372
9.89646
9.89887
9.90097
9.90281
9.90441
9.90579
9.90699
9.90801
9.90889
9.90964
9.91027
9.9108
9.91124
9.91161
9.91189
9.91212
9.91228
9.91239
9.91244
8.7805
8.78641
8.79819
8.81573
8.83885
8.86727
8.90058
8.93828
8.97971
9.02414
9.07077
9.11881
9.16747
9.21603
9.26385
9.31041
9.35525
9.39806
9.43859
9.4767
9.51234
9.54549
9.57622
9.6046
9.63077
9.65484
9.67697
9.69728
9.71593
9.73305
9.74877
9.76319
9.77641
9.78853
9.79962
9.80975
9.81898
9.82737
9.83497
9.84182
9.84799
9.8535
9.85843
9.8628
9.86666
9.87007
9.87306
9.87568
9.87796
9.87994
9.88165
9.88313
9.8844
9.88548
9.88641
9.88719
9.88784
9.88839
9.88883
9.88919
9.88947
9.88967
9.8898
9.88986
8.53348
8.54062
8.55486
8.57609
8.60411
8.63862
8.67914
8.72503
8.77551
8.82964
8.88642
8.94486
9.00397
9.06286
9.12075
9.177
9.23108
9.2826
9.33128
9.37698
9.41963
9.45924
9.4959
9.52972
9.56087
9.5895
9.61579
9.63992
9.66207
9.6824
9.70106
9.71819
9.7339
9.7483
9.76148
9.77352
9.78449
9.79446
9.80349
9.81163
9.81894
9.82548
9.83131
9.83648
9.84105
9.84508
9.8486
9.85168
9.85437
9.85669
9.85871
9.86044
9.86193
9.8632
9.86428
9.86519
9.86596
9.86659
9.86711
9.86753
9.86785
9.86808
9.86824
9.86831
8.29349
8.30183
8.31847
8.34333
8.37621
8.41679
8.46454
8.5187
8.57831
8.64224
8.70927
8.77816
8.84773
8.91691
8.98479
9.05058
9.1137
9.17369
9.23026
9.28323
9.33257
9.37832
9.42059
9.45953
9.49535
9.52825
9.55843
9.58613
9.61153
9.63485
9.65625
9.6759
9.69394
9.71047
9.72561
9.73944
9.75205
9.76349
9.77385
9.78319
9.79157
9.79907
9.80573
9.81164
9.81686
9.82144
9.82545
9.82895
9.832
9.83463
9.83691
9.83887
9.84055
9.84199
9.8432
9.84423
9.8451
9.84581
9.8464
9.84686
9.84723
9.84749
9.84766
9.84775
8.05996
8.06946
8.08845
8.11686
8.15456
8.2012
8.25622
8.31874
8.38764
8.46154
8.53896
8.61842
8.69851
8.77799
8.85577
8.93099
9.00296
9.0712
9.13538
9.19534
9.25106
9.30262
9.35018
9.39393
9.43412
9.47099
9.50479
9.53579
9.56421
9.5903
9.61425
9.63625
9.65645
9.67498
9.69195
9.70745
9.72158
9.7344
9.74601
9.75646
9.76584
9.77421
9.78164
9.78822
9.79402
9.79911
9.80356
9.80744
9.8108
9.81372
9.81623
9.81839
9.82023
9.82181
9.82315
9.82428
9.82522
9.826
9.82664
9.82716
9.82755
9.82784
9.82803
9.82812
7.83244
7.84306
7.86431
7.8962
7.93864
7.99134
8.05369
8.12472
8.20309
8.28718
8.3752
8.46539
8.5561
8.64588
8.73353
8.81806
8.89873
8.97499
9.04652
9.11318
9.17496
9.23201
9.28453
9.33277
9.37703
9.41759
9.45474
9.48879
9.52
9.54864
9.57495
9.59913
9.62134
9.64172
9.6604
9.67747
9.69302
9.70713
9.71989
9.73138
9.74167
9.75085
9.75899
9.76618
9.7725
9.77804
9.78288
9.78709
9.79074
9.79389
9.79661
9.79893
9.80093
9.80262
9.80406
9.80527
9.80629
9.80713
9.80782
9.80836
9.80879
9.8091
9.8093
9.8094
7.61059
7.62226
7.64568
7.68093
7.72802
7.78675
7.8565
7.93621
8.02431
8.11885
8.21773
8.31884
8.42029
8.52042
8.6179
8.71164
8.80082
8.8849
8.96352
9.03657
9.1041
9.16632
9.22348
9.27591
9.32393
9.3679
9.40814
9.44499
9.47876
9.50975
9.53823
9.56442
9.5885
9.61062
9.63089
9.64941
9.66629
9.6816
9.69544
9.70788
9.71902
9.72893
9.73771
9.74545
9.75224
9.75819
9.76336
9.76786
9.77176
9.77511
9.778
9.78047
9.78258
9.78438
9.7859
9.78718
9.78826
9.78914
9.78987
9.79045
9.79089
9.79122
9.79143
9.79154
7.39411
7.40677
7.43222
7.47069
7.52232
7.58702
7.66426
7.75285
7.85097
7.95629
8.06631
8.17857
8.2909
8.40144
8.50871
8.61155
8.7091
8.80076
8.88621
8.96535
9.03831
9.10536
9.16685
9.22316
9.27466
9.32176
9.36483
9.40424
9.44035
9.47349
9.50397
9.53202
9.55783
9.58156
9.60331
9.62319
9.6413
9.65773
9.67256
9.68589
9.6978
9.70839
9.71775
9.72598
9.73319
9.73948
9.74495
9.7497
9.7538
9.75733
9.76036
9.76295
9.76516
9.76704
9.76863
9.76996
9.77108
9.77201
9.77276
9.77336
9.77383
9.77417
9.77439
9.7745
7.18283
7.19638
7.22371
7.26519
7.32118
7.3918
7.47658
7.57428
7.68276
7.79925
7.92075
8.04442
8.16777
8.28876
8.40579
8.51763
8.62337
8.72241
8.81442
8.89934
8.9774
9.04896
9.11445
9.17433
9.22904
9.27901
9.32465
9.36639
9.40462
9.43973
9.47203
9.50179
9.52921
9.55444
9.57757
9.59872
9.61798
9.63545
9.65121
9.66535
9.67797
9.68917
9.69904
9.7077
9.71528
9.72187
9.7276
9.73255
9.73683
9.7405
9.74365
9.74633
9.74862
9.75056
9.7522
9.75357
9.75473
9.75568
9.75645
9.75707
9.75755
9.7579
9.75813
9.75824
6.97659
6.99093
7.01994
7.06419
7.12433
7.20073
7.29312
7.40019
7.51944
7.64753
7.7809
7.91624
8.05076
8.18223
8.30897
8.4297
8.54347
8.64967
8.74795
8.83834
8.92116
8.9969
9.06608
9.12925
9.18688
9.23946
9.28744
9.33129
9.37143
9.4083
9.44226
9.47361
9.50253
9.52915
9.55358
9.57591
9.59624
9.61467
9.63128
9.64618
9.65945
9.67119
9.68152
9.69057
9.69845
9.7053
9.71124
9.71637
9.72078
9.72457
9.7278
9.73056
9.73291
9.73489
9.73657
9.73797
9.73915
9.74012
9.74091
9.74154
9.74203
9.74239
9.74262
9.74273
6.77532
6.79031
6.82076
6.86749
6.93148
7.01349
7.11353
7.23026
7.36076
7.50095
7.64659
7.7939
7.93973
8.08171
8.21809
8.34758
8.46921
8.58234
8.68663
8.78215
8.86939
8.94897
9.02154
9.08769
9.14799
9.20294
9.25303
9.29876
9.34062
9.37907
9.41455
9.44735
9.47766
9.50558
9.53122
9.55466
9.57599
9.59531
9.61271
9.6283
9.64217
9.65441
9.66514
9.67451
9.68266
9.68972
9.69583
9.7011
9.70562
9.70949
9.71279
9.7156
9.71798
9.72
9.7217
9.72312
9.72431
9.72529
9.72609
9.72673
9.72723
9.72759
9.72782
9.72794
6.57897
6.59448
6.62609
6.67493
6.7424
6.82978
6.93748
7.06421
7.20652
7.35937
7.51774
7.67729
7.83455
7.98702
8.13298
8.27108
8.40039
8.52025
8.63025
8.73057
8.82185
8.90495
8.98059
9.04947
9.11219
9.16928
9.22126
9.26866
9.31203
9.35189
9.38873
9.42288
9.45449
9.48364
9.51042
9.53489
9.55714
9.57729
9.59543
9.61166
9.62607
9.63875
9.64983
9.65947
9.66783
9.67507
9.68131
9.68668
9.69129
9.69522
9.69857
9.70141
9.70381
9.70584
9.70755
9.70899
9.71018
9.71117
9.71197
9.71261
9.7131
9.71347
9.7137
9.71382
6.38755
6.4034
6.43586
6.48638
6.55689
6.6493
6.76462
6.90174
7.05653
7.22269
7.39423
7.56632
7.7351
7.89802
8.05344
8.2
8.33681
8.4632
8.57864
8.68337
8.77834
8.86461
8.94304
9.01438
9.07929
9.13829
9.19195
9.24084
9.28552
9.32661
9.36469
9.40009
9.43292
9.46323
9.49107
9.5165
9.53962
9.56054
9.57936
9.59617
9.61108
9.62416
9.63553
9.6454
9.65393
9.6613
9.66764
9.67309
9.67775
9.68172
9.68509
9.68794
9.69035
9.69238
9.69409
9.69553
9.69672
9.6977
9.6985
9.69914
9.69964
9.7
9.70023
9.70035
6.20107
6.21708
6.25004
6.30176
6.37476
6.47176
6.59462
6.74255
6.91065
7.09081
7.27601
7.46092
7.64126
7.81454
7.9793
8.13415
8.27828
8.41101
8.53159
8.64035
8.73861
8.82774
8.90867
8.98222
9.0491
9.10982
9.16496
9.21514
9.26095
9.3031
9.34227
9.37885
9.41284
9.44424
9.4731
9.49943
9.52334
9.54498
9.56442
9.58178
9.59714
9.61057
9.62219
9.63222
9.64089
9.64835
9.65476
9.66026
9.66495
9.66893
9.67231
9.67516
9.67756
9.67958
9.68128
9.68271
9.68389
9.68487
9.68566
9.68629
9.68679
9.68714
9.68738
9.6875
6.01957
6.03556
6.06865
6.12101
6.19584
6.29687
6.42708
6.58634
6.76875
6.96371
7.16302
7.36104
7.55292
7.73639
7.91036
8.07329
8.22455
8.36351
8.48894
8.60128
8.70242
8.7941
8.87725
8.95278
9.02146
9.0837
9.14012
9.19143
9.23818
9.2812
9.32135
9.35905
9.39414
9.42658
9.4564
9.48358
9.50823
9.53053
9.55055
9.56841
9.5842
9.59793
9.60975
9.6199
9.62865
9.63617
9.64262
9.64815
9.65285
9.65683
9.6602
9.66303
9.6654
9.6674
9.66909
9.6705
9.67167
9.67263
9.67341
9.67404
9.67452
9.67488
9.67511
9.67523
5.84313
5.85889
5.89169
5.94409
6.02002
6.12435
6.26163
6.43277
6.63079
6.84138
7.0552
7.26664
7.46997
7.66338
7.84643
8.01721
8.1754
8.32053
8.45053
8.56596
8.66952
8.76348
8.8486
8.92586
8.99619
9.05977
9.1173
9.16958
9.21708
9.26077
9.30179
9.34059
9.37675
9.41018
9.44092
9.46887
9.4942
9.51713
9.53768
9.55601
9.5722
9.5862
9.59815
9.60837
9.61718
9.62473
9.63119
9.63672
9.64141
9.64537
9.64871
9.65151
9.65385
9.65582
9.65748
9.65887
9.66002
9.66096
9.66173
9.66235
9.66283
9.66318
9.66341
9.66352
5.67179
5.68713
5.71924
5.77103
5.84718
5.95393
6.09781
6.28148
6.49679
6.72386
6.95248
7.17771
7.39228
7.59527
7.78733
7.96566
8.13056
8.28193
8.4162
8.53414
8.63964
8.73566
8.82249
8.90127
8.97314
9.0379
9.09635
9.14948
9.19754
9.24169
9.28345
9.32337
9.36057
9.39493
9.42658
9.45525
9.48118
9.50471
9.52575
9.54449
9.56109
9.57532
9.58734
9.59759
9.60641
9.61396
9.62041
9.62593
9.6306
9.63452
9.63782
9.64057
9.64286
9.64479
9.64643
9.64779
9.64892
9.64984
9.65059
9.65119
9.65166
9.65201
9.65223
9.65234
5.50562
5.52035
5.55135
5.60185
5.67727
5.78535
5.93513
6.13202
6.36687
6.61125
6.85478
7.09427
7.31975
7.53179
7.73289
7.9184
8.08973
8.24761
8.38585
8.50559
8.61251
8.71046
8.79874
8.8788
8.95217
9.01793
9.07711
9.13102
9.17944
9.22379
9.26619
9.30731
9.34554
9.38076
9.41332
9.44264
9.4691
9.4932
9.51468
9.53381
9.55082
9.56525
9.57728
9.58749
9.59631
9.60383
9.61025
9.61575
9.62037
9.62424
9.62749
9.63018
9.63241
9.63429
9.6359
9.63723
9.63833
9.63923
9.63995
9.64054
9.64101
9.64135
9.64156
9.64167
5.34469
5.35862
5.3881
5.43663
5.51029
5.61838
5.77306
5.98385
6.24131
6.50369
6.7619
7.01643
7.25225
7.47261
7.68299
7.87517
8.05254
8.21751
8.35938
8.48007
8.5878
8.68769
8.77716
8.85824
8.93317
8.99975
9.05945
9.11413
9.16269
9.20696
9.24987
9.29236
9.33157
9.36758
9.40109
9.43097
9.45787
9.48257
9.50442
9.52389
9.54136
9.55596
9.56791
9.57802
9.58684
9.5943
9.60065
9.60613
9.61069
9.6145
9.6177
9.62032
9.62247
9.62429
9.62587
9.62717
9.62824
9.6291
9.62981
9.63038
9.63083
9.63117
9.63138
9.63148
5.18903
5.202
5.22958
5.27545
5.34624
5.45282
5.61097
5.83626
6.12063
6.40135
6.67355
6.94436
7.18965
7.41727
7.63757
7.8357
8.01854
8.19164
8.33675
8.4573
8.56517
8.66723
8.75759
8.83936
8.91606
8.98323
9.0432
9.09875
9.14722
9.19103
9.23431
9.27848
9.31863
9.35529
9.38985
9.4202
9.44741
9.47276
9.49492
9.51466
9.53268
9.54741
9.55919
9.56914
9.57795
9.58534
9.59159
9.59705
9.60154
9.60525
9.6084
9.61094
9.613
9.61477
9.61632
9.61759
9.61861
9.61945
9.62012
9.62067
9.62113
9.62145
9.62166
9.62175
5.03868
5.05053
5.07588
5.11845
5.18524
5.28853
5.44822
5.6883
6.00564
6.30448
6.58923
6.87839
7.13183
7.3652
7.5967
7.79972
7.98716
8.17014
8.31795
8.43698
8.5442
8.64902
8.73987
8.82189
8.9008
8.96827
9.02817
9.08487
9.13297
9.17586
9.21933
9.26567
9.30665
9.34377
9.3796
9.41026
9.43762
9.46375
9.4861
9.50603
9.52476
9.53957
9.55106
9.56077
9.56961
9.57689
9.58302
9.58848
9.59288
9.59648
9.59958
9.60203
9.60399
9.60568
9.60721
9.60845
9.60942
9.61023
9.61087
9.61141
9.61186
9.61218
9.61237
9.61246
4.89365
4.90427
4.92708
4.96575
5.02742
5.12547
5.28408
5.53863
5.89763
6.21333
6.50812
6.81908
7.07867
7.3156
7.56063
7.76696
7.95762
8.15331
8.30301
8.41881
8.52441
8.63307
8.72387
8.80552
8.88742
8.95476
9.01413
9.07249
9.1199
9.16129
9.20471
9.25399
9.2956
9.33291
9.37033
9.4011
9.42839
9.45554
9.47794
9.49791
9.51761
9.53242
9.54348
9.55287
9.5618
9.56894
9.5749
9.58039
9.58468
9.58815
9.59122
9.59357
9.5954
9.59701
9.59854
9.59974
9.60066
9.60144
9.60204
9.60255
9.60301
9.60332
9.6035
9.60359
4.75394
4.76322
4.78326
4.8175
4.87298
4.96369
5.11784
5.38542
5.79854
6.12819
6.429
6.76733
7.03002
7.26739
7.52988
7.73715
7.92889
8.14165
8.29201
8.40242
8.50518
8.61956
8.70944
8.78984
8.87603
8.94261
9.00081
9.06173
9.10798
9.14716
9.19016
9.24356
9.28546
9.3225
9.36212
9.39268
9.41958
9.44815
9.47036
9.49017
9.51124
9.52595
9.53638
9.54535
9.55451
9.56144
9.56718
9.57278
9.57692
9.58023
9.5833
9.58552
9.58721
9.58872
9.59029
9.59143
9.5923
9.59304
9.59361
9.59409
9.59456
9.59486
9.59503
9.59511
4.61951
4.62739
4.64447
4.67386
4.72217
4.80338
4.94884
5.22604
5.71116
6.04933
6.35003
6.72453
6.98574
7.21907
7.50536
7.71002
7.89956
8.13602
8.28501
8.38742
8.48577
8.6088
8.69648
8.77433
8.86687
8.93173
8.98783
9.05272
9.0972
9.13331
9.17532
9.2346
9.27619
9.31232
9.35507
9.38496
9.411
9.44164
9.46333
9.48266
9.50571
9.52015
9.52973
9.53815
9.54774
9.55439
9.55981
9.56562
9.56957
9.57267
9.57579
9.57787
9.57939
9.5808
9.58243
9.58352
9.58431
9.58503
9.58555
9.58601
9.5865
9.58679
9.58694
9.58701
4.49033
4.49676
4.51075
4.53498
4.57531
4.64488
4.77658
5.05682
5.63947
5.97694
6.26854
6.69276
6.94565
7.16859
7.48851
7.6853
7.86771
8.13771
8.28209
8.37341
8.46521
8.60138
8.68489
8.75831
8.86035
8.92204
8.97471
9.04577
9.08757
9.11959
9.15974
9.22747
9.26776
9.30206
9.34937
9.37788
9.40243
9.43614
9.45679
9.47517
9.50111
9.51499
9.52347
9.53117
9.5415
9.54773
9.55274
9.55893
9.56262
9.56544
9.5687
9.57061
9.57192
9.5732
9.57495
9.57597
9.57668
9.57739
9.57786
9.57827
9.5788
9.57908
9.57921
9.57927
4.36632
4.37129
4.38212
4.40098
4.4327
4.48872
4.60087
4.87264
5.58906
5.91111
6.18081
6.67505
6.90952
7.11314
7.4815
7.66273
7.83078
8.14862
8.28322
8.35998
8.44227
8.59817
8.67455
8.74087
8.85711
8.91344
8.9608
9.04128
9.07909
9.10588
9.14279
9.22268
9.26015
9.29128
9.3453
9.37141
9.39356
9.43185
9.45071
9.46746
9.49761
9.51046
9.51753
9.5243
9.53584
9.54146
9.54588
9.55272
9.55603
9.55849
9.56202
9.56371
9.56478
9.5659
9.56786
9.56878
9.56938
9.5701
9.5705
9.57086
9.57147
9.57172
9.57183
9.57187
4.24739
4.25091
4.25857
4.27197
4.29469
4.33559
4.42206
4.66646
5.5675
5.85171
6.08174
6.67567
6.87706
7.04897
7.48745
7.64203
7.78534
8.17143
8.28822
8.34675
8.41535
8.60047
8.66534
8.72082
8.85805
8.90583
8.94526
9.03987
9.07172
9.09207
9.12369
9.22097
9.2533
9.27942
9.34331
9.36548
9.38398
9.42906
9.44504
9.45917
9.49544
9.50651
9.51188
9.5174
9.53083
9.53555
9.53916
9.54702
9.54979
9.55177
9.55576
9.55715
9.55795
9.55886
9.56115
9.56193
9.5624
9.56314
9.56347
9.56377
9.56447
9.56469
9.56477
9.5648
4.13346
4.13553
4.14007
4.14802
4.16159
4.18635
4.2413
4.4287
5.58503
5.79824
5.9645
6.70054
6.84784
6.97113
7.51068
7.62293
7.72688
8.2099
8.29659
8.33349
8.38241
8.61011
8.65712
8.6966
8.86448
8.89906
8.92698
9.0424
9.06539
9.07818
9.10136
9.22334
9.24713
9.26575
9.34397
9.36004
9.37318
9.42819
9.43973
9.44988
9.49492
9.5031
9.50646
9.51032
9.52657
9.52996
9.53248
9.54189
9.54386
9.54523
9.54993
9.55091
9.55141
9.55205
9.55483
9.55539
9.5557
9.55652
9.55674
9.55695
9.55782
9.55797
9.55802
9.55804
4.02438
4.02507
4.02656
4.02919
4.03367
4.04193
4.06096
4.14656
5.6551
5.74977
5.82018
6.7576
6.82126
6.87317
7.55706
7.60514
7.64954
8.26909
8.30741
8.32012
8.3408
8.62954
8.64968
8.66618
8.87817
8.89296
8.90456
9.05005
9.05991
9.06431
9.07442
9.23117
9.24153
9.2493
9.34813
9.35501
9.36048
9.42981
9.43474
9.43902
9.4965
9.5001
9.50126
9.50285
9.52323
9.52467
9.52569
9.5374
9.53824
9.53878
9.54456
9.54498
9.54515
9.54541
9.54891
9.54915
9.54927
9.55023
9.55032
9.5504
9.55149
9.55156
9.55158
9.55158
)
;

boundaryField
{
    left
    {
        type            zeroGradient;
    }
    right
    {
        type            zeroGradient;
    }
    interface
    {
        type            fixedValue;
        value           nonuniform List<scalar> 
64
(
3.97105
3.97105
3.97105
3.97105
3.97105
3.97105
3.97105
3.97105
5.72672
5.72672
5.72672
6.80858
6.80858
6.80858
7.59654
7.59654
7.59654
8.31338
8.31338
8.31338
8.31338
8.64614
8.64614
8.64614
8.89007
8.89007
8.89007
9.05737
9.05737
9.05737
9.05737
9.23886
9.23886
9.23886
9.35259
9.35259
9.35259
9.43231
9.43231
9.43231
9.4987
9.4987
9.4987
9.4987
9.5221
9.5221
9.5221
9.53549
9.53549
9.53549
9.54208
9.54208
9.54208
9.54208
9.54611
9.54611
9.54611
9.54717
9.54717
9.54717
9.54843
9.54843
9.54843
9.54843
)
;
    }
    bottom
    {
        type            fixedValue;
        value           uniform 10;
    }
    defaultFaces
    {
        type            empty;
    }
}


// ************************************************************************* //
