/*--------------------------------*- C++ -*----------------------------------*\
| =========                 |                                                 |
| \\      /  F ield         | OpenFOAM: The Open Source CFD Toolbox           |
|  \\    /   O peration     | Version:  5.x                                   |
|   \\  /    A nd           | Web:      www.OpenFOAM.org                      |
|    \\/     M anipulation  |                                                 |
\*---------------------------------------------------------------------------*/
FoamFile
{
    version     2.0;
    format      ascii;
    class       volScalarField;
    location    "3.9";
    object      gradTx;
}
// * * * * * * * * * * * * * * * * * * * * * * * * * * * * * * * * * * * * * //

dimensions      [0 -1 0 1 0 0 0];

internalField   nonuniform List<scalar> 
2048
(
0.0213055
0.0636717
0.105278
0.145553
0.18385
0.219451
0.251614
0.279629
0.302893
0.320973
0.333656
0.340961
0.343125
0.340572
0.333862
0.323641
0.310597
0.295413
0.278743
0.261178
0.243237
0.225351
0.207865
0.191042
0.175068
0.160063
0.146096
0.133189
0.121328
0.110473
0.100565
0.0915303
0.0832925
0.0757737
0.068901
0.0626085
0.0568386
0.0515426
0.0466795
0.0422156
0.0381226
0.034377
0.0309579
0.027846
0.0250224
0.0224681
0.0201633
0.0180876
0.0162203
0.01454
0.0130257
0.0116564
0.0104115
0.00927119
0.00821687
0.00723126
0.00629888
0.00540631
0.00454234
0.00369803
0.00286658
0.00204316
0.00122439
0.000407911
0.0631877
0.188858
0.312332
0.431932
0.545739
0.651601
0.747271
0.830591
0.899721
0.95335
0.990829
1.01223
1.01827
1.01026
0.98989
0.959108
0.919978
0.874553
0.82478
0.772426
0.719029
0.665868
0.61396
0.564072
0.516747
0.472334
0.431025
0.392878
0.357847
0.325807
0.296575
0.269931
0.245642
0.223475
0.203211
0.184656
0.167639
0.152017
0.137668
0.124495
0.112414
0.101358
0.0912665
0.0820823
0.0737508
0.0662158
0.059419
0.0533001
0.0477971
0.0428473
0.0383879
0.0343567
0.0306928
0.0273373
0.0242347
0.0213337
0.0185884
0.0159589
0.0134121
0.0109217
0.0084677
0.00603632
0.00361809
0.00120564
0.103774
0.310231
0.513261
0.710174
0.897813
1.07257
1.2306
1.36819
1.48218
1.57029
1.63143
1.66575
1.67454
1.66002
1.62511
1.57311
1.50748
1.43166
1.3489
1.26211
1.17384
1.08618
1.00077
0.918857
0.841287
0.768609
0.701108
0.638859
0.581766
0.529606
0.48206
0.438754
0.399291
0.36328
0.33036
0.300207
0.272544
0.247136
0.223791
0.202351
0.182685
0.164684
0.148253
0.133304
0.119747
0.107494
0.0964467
0.086508
0.0775757
0.0695468
0.0623182
0.0557875
0.0498547
0.0444228
0.0394002
0.0347022
0.0302532
0.0259876
0.0218514
0.0178018
0.0138069
0.00984503
0.00590306
0.00196792
0.143345
0.428667
0.709633
0.982668
1.24341
1.48669
1.70693
1.89863
2.05707
2.17891
2.26258
2.30836
2.31823
2.29549
2.24439
2.16969
2.07635
1.96923
1.85289
1.73143
1.60836
1.48656
1.36827
1.25513
1.14826
1.04836
0.955757
0.870525
0.79249
0.721309
0.656508
0.597543
0.543839
0.494841
0.45004
0.408988
0.371305
0.336674
0.304836
0.275579
0.248734
0.224157
0.201726
0.181324
0.162834
0.146133
0.131091
0.117569
0.105429
0.0945269
0.0847206
0.075869
0.0678334
0.0604792
0.0536789
0.0473147
0.0412813
0.0354885
0.0298618
0.0243433
0.0188903
0.0134745
0.00808271
0.00269607
0.182058
0.544679
0.902433
1.25103
1.58493
1.89729
2.18049
2.42691
2.62998
2.78508
2.89011
2.94561
2.9544
2.92111
2.85152
2.75199
2.62907
2.48913
2.33809
2.18124
2.02308
1.86723
1.71646
1.57274
1.43742
1.31126
1.19462
1.08752
0.989675
0.900602
0.819647
0.746068
0.679097
0.618002
0.562121
0.510887
0.463823
0.420536
0.380708
0.344085
0.310464
0.279677
0.251581
0.226039
0.202909
0.182038
0.16326
0.146402
0.131283
0.117723
0.105541
0.094558
0.0845964
0.0754845
0.0670586
0.0591671
0.0516755
0.0444687
0.0374532
0.0305571
0.0237286
0.0169335
0.0101624
0.00339186
0.219952
0.658434
1.0921
1.51617
1.92397
2.30681
2.65462
2.95717
3.20559
3.3937
3.51887
3.58201
3.58711
3.5404
3.44943
3.32237
3.16749
2.99273
2.80545
2.61217
2.41835
2.22833
2.04535
1.87164
1.70864
1.55717
1.41754
1.28968
1.17318
1.06737
0.971397
0.884287
0.805052
0.732769
0.666623
0.605927
0.550118
0.498736
0.451415
0.407866
0.36786
0.331217
0.297783
0.267407
0.239928
0.215164
0.192916
0.17297
0.155108
0.139111
0.124761
0.111841
0.100137
0.0894386
0.0795453
0.070271
0.061451
0.0529457
0.0446432
0.0364596
0.0283359
0.0202329
0.012149
0.00405761
0.256951
0.769765
1.27853
1.77833
2.26141
2.71695
3.13196
3.49289
3.78793
4.00902
4.15294
4.22129
4.21958
4.15603
4.04029
3.88254
3.69289
3.48095
3.25558
3.02455
2.79434
2.56995
2.35497
2.15181
1.96192
1.78608
1.62451
1.47701
1.34301
1.22166
1.11184
1.01231
0.921834
0.839282
0.763681
0.694236
0.630304
0.571376
0.517043
0.466989
0.420973
0.378811
0.340351
0.305438
0.273896
0.245516
0.22006
0.197276
0.176907
0.158695
0.142385
0.127727
0.114467
0.102359
0.09116
0.08065
0.0706328
0.0609446
0.0514557
0.0420719
0.0327295
0.0233856
0.0140504
0.00469598
0.292871
0.878184
1.46116
2.03713
2.5974
3.12878
3.61459
4.03706
4.3806
4.63477
4.79586
4.86651
4.85433
4.77
4.62565
4.43367
4.20612
3.95434
3.68877
3.41853
3.1511
2.89209
2.64535
2.41332
2.19736
1.9981
1.81564
1.64962
1.49932
1.36363
1.24117
1.13036
1.02969
0.937785
0.853528
0.776024
0.704574
0.638624
0.577738
0.52158
0.469905
0.42254
0.379347
0.340181
0.304854
0.273129
0.244728
0.219356
0.196713
0.176505
0.158444
0.142244
0.127617
0.114275
0.101935
0.0903378
0.0792543
0.0684968
0.0579193
0.0474187
0.036929
0.0264057
0.0158752
0.00530978
0.327421
0.9829
1.63889
2.29156
2.93148
3.54275
4.10415
4.59236
4.98687
5.27435
5.45067
5.52016
5.49324
5.38369
5.2065
4.97646
4.70764
4.41316
4.1051
3.79405
3.48855
3.19473
2.91655
2.6563
2.41513
2.19344
1.99115
1.80775
1.64234
1.49357
1.3597
1.23879
1.12896
1.02861
0.93647
0.851569
0.773172
0.7007
0.633695
0.571808
0.514798
0.462516
0.414862
0.371712
0.33287
0.298068
0.266981
0.239266
0.214578
0.192589
0.172979
0.155432
0.139626
0.125229
0.111913
0.0993756
0.0873547
0.0756386
0.0640659
0.0525269
0.0409556
0.029308
0.017632
0.0059018
0.360218
1.08283
1.81019
2.54004
3.26255
3.95881
4.6019
5.16129
5.60994
5.93092
6.12007
6.18425
6.13764
5.99793
5.78334
5.51122
5.19762
4.85743
4.50445
4.15094
3.80654
3.47783
3.16866
2.88097
2.61552
2.37241
2.15136
1.95171
1.7724
1.61181
1.46782
1.338
1.22007
1.11216
1.01287
0.921189
0.836382
0.757859
0.685144
0.617875
0.555821
0.498879
0.447008
0.400125
0.358032
0.320417
0.286902
0.257084
0.230575
0.207011
0.186047
0.167343
0.150542
0.135269
0.121142
0.10781
0.0949775
0.0824091
0.0699298
0.0574251
0.0448313
0.0321076
0.019329
0.00647456
0.390791
1.17664
1.97309
2.78038
3.58886
4.37635
5.10885
5.74631
6.25299
6.60755
6.80644
6.86029
6.78832
6.61301
6.35626
6.03796
5.67603
5.28701
4.88657
4.48887
4.10485
3.74135
3.40182
3.08761
2.7989
2.53541
2.29666
2.08187
1.88986
1.71877
1.56598
1.42849
1.3035
1.18887
1.08312
0.985233
0.894513
0.810378
0.732335
0.660005
0.593167
0.531781
0.475908
0.425529
0.380441
0.340277
0.304587
0.272902
0.244785
0.219843
0.197711
0.178031
0.160419
0.144448
0.129675
0.115692
0.102169
0.0888493
0.075546
0.0621423
0.0485782
0.0348189
0.0209737
0.00703013
0.418602
1.26276
2.12519
3.00981
3.908
4.79423
5.62579
6.34999
6.91938
7.30726
7.51186
7.54934
7.44552
7.22877
6.92497
6.55643
6.14272
5.70171
5.25107
4.80742
4.3832
3.98526
3.61625
3.27661
2.96576
2.68294
2.42751
2.19866
1.99513
1.81486
1.65469
1.5108
1.37979
1.25925
1.14765
1.04406
0.947884
0.858549
0.775538
0.698443
0.627042
0.561386
0.501691
0.448038
0.40021
0.35776
0.320148
0.286826
0.257304
0.231166
0.208038
0.187554
0.16931
0.152823
0.137569
0.123076
0.108977
0.0950005
0.08095
0.0667079
0.0522182
0.0374555
0.0225722
0.00756991
0.443065
1.33947
2.26377
3.22503
4.2169
5.21075
6.15333
6.97516
7.61277
8.03307
8.23813
8.25197
8.10891
7.84454
7.48885
7.06623
6.59745
6.10126
5.59749
5.10605
4.64128
4.20958
3.81223
3.44846
3.11667
2.81557
2.54445
2.30252
2.08861
1.90056
1.7345
1.58555
1.44952
1.32379
1.20688
1.09804
0.996813
0.902666
0.81503
0.733446
0.657664
0.587858
0.524483
0.467766
0.417455
0.372985
0.333704
0.298968
0.268231
0.241065
0.217098
0.195971
0.177272
0.160453
0.144884
0.130015
0.11545
0.100904
0.086176
0.0711507
0.055773
0.0400293
0.0241287
0.00809437
0.463574
1.40495
2.38583
3.42218
4.51174
5.62357
6.69196
7.62511
8.33731
8.78803
8.98674
8.96827
8.77763
8.45923
8.04702
7.56681
7.04008
6.48551
5.92531
5.38411
4.87873
4.41439
3.99018
3.60377
3.25231
2.93393
2.64803
2.39394
2.17071
1.9763
1.806
1.65338
1.51329
1.38302
1.26126
1.14751
1.04161
0.943021
0.851091
0.765283
0.685264
0.611359
0.5444
0.484825
0.432298
0.386081
0.345387
0.309452
0.277673
0.249631
0.224961
0.203335
0.184356
0.167398
0.151683
0.136566
0.121634
0.106597
0.0912565
0.0754991
0.0592635
0.0425507
0.0256447
0.0086028
0.479532
1.45734
2.48821
3.59697
4.78793
6.02958
7.24202
8.30379
9.09779
9.57516
9.75879
9.69779
9.45016
9.07133
8.59839
8.05756
7.47058
6.85444
6.23389
5.64076
5.09521
4.59989
4.15058
3.74327
3.37349
3.03874
2.73887
2.47339
2.24178
2.0425
1.86981
1.71503
1.57175
1.43747
1.31119
1.1928
1.08256
0.979896
0.883998
0.794237
0.710082
0.632042
0.561541
0.499319
0.444863
0.39718
0.35533
0.318405
0.285739
0.256951
0.231696
0.209696
0.19061
0.173721
0.158033
0.142785
0.127573
0.112118
0.0962215
0.0797809
0.0627112
0.0450276
0.0271187
0.00909303
0.490389
1.49488
2.5677
3.7447
5.04005
6.42476
7.80367
9.01612
9.8999
10.3974
10.5549
10.4396
10.1243
9.67893
9.14172
8.53779
7.88916
7.2083
6.52253
5.87496
5.29038
4.76642
4.29406
3.86781
3.48111
3.13074
2.81762
2.54137
2.30212
2.09954
1.92661
1.77126
1.62553
1.48767
1.35709
1.2342
1.11994
1.01357
0.914022
0.820605
0.732373
0.650043
0.575979
0.511347
0.455281
0.406417
0.363678
0.325961
0.292539
0.263118
0.237368
0.21509
0.196074
0.179484
0.164003
0.148725
0.133311
0.117499
0.101097
0.0840238
0.0661383
0.0474652
0.0285449
0.0095611
0.495678
1.51601
2.62117
3.86038
5.26183
6.80392
8.37677
9.76839
10.7505
11.2571
11.3753
11.1921
10.7972
10.2798
9.67574
9.0067
8.29644
7.54776
6.7903
6.08531
5.46391
4.91453
4.42131
3.97836
3.57618
3.21067
2.88498
2.59839
2.3519
2.14768
1.97714
1.82297
1.67528
1.5341
1.39932
1.27192
1.15398
1.0443
0.941414
0.844705
0.752419
0.665473
0.58775
0.521
0.463689
0.413928
0.370578
0.332261
0.298177
0.268224
0.242044
0.219545
0.200776
0.184757
0.16967
0.154435
0.138884
0.122769
0.105902
0.0882561
0.0695698
0.0498658
0.029912
0.0100008
0.495044
1.51942
2.64579
3.93894
5.4461
7.16042
8.96065
10.5688
11.6579
12.1561
12.2194
11.9537
11.4648
10.8717
10.1993
9.46328
8.69352
7.87414
7.036
6.26996
5.61564
5.04508
4.53308
4.07604
3.65986
3.27924
2.94166
2.645
2.39115
2.18707
2.02224
1.87114
1.72157
1.57724
1.43825
1.30614
1.18491
1.07234
0.966393
0.866882
0.770538
0.678409
0.59684
0.528367
0.47024
0.419846
0.376183
0.337451
0.302755
0.272363
0.24579
0.22307
0.204731
0.189617
0.175122
0.159959
0.144325
0.127952
0.110651
0.0925077
0.0730358
0.0522272
0.0312021
0.0104033
0.488283
1.50423
2.63918
3.97539
5.58486
7.48582
9.55373
11.428
12.6325
13.0944
13.0862
12.7223
12.1221
11.4519
10.7114
9.90602
9.08224
8.18966
7.25794
6.42635
5.7456
5.15934
4.63003
4.16208
3.73346
3.33705
2.98849
2.68185
2.4197
2.21766
2.06289
1.91694
1.76489
1.61754
1.47425
1.33689
1.21293
1.09797
0.989121
0.88752
0.787106
0.688873
0.603167
0.533546
0.475109
0.42429
0.380654
0.341686
0.306357
0.275631
0.248677
0.22565
0.207932
0.194155
0.180458
0.165327
0.149663
0.133073
0.115343
0.0968117
0.0765747
0.0545421
0.0323883
0.0107563
0.475356
1.47002
2.59956
3.96507
5.66935
7.76939
10.1529
12.3604
13.6873
14.0694
13.9738
13.4964
12.7623
12.0185
11.2119
10.3325
9.46534
8.49787
7.45364
6.55098
5.85427
5.25921
4.71262
4.23786
3.79853
3.38443
3.02634
2.70975
2.43707
2.2391
2.10031
1.96175
1.80556
1.65541
1.5077
1.36409
1.23825
1.12147
1.00966
0.907065
0.802593
0.696812
0.606561
0.536651
0.478509
0.427355
0.384159
0.345135
0.309042
0.278134
0.25079
0.22724
0.210343
0.198481
0.185801
0.17055
0.15492
0.138153
0.119962
0.101208
0.0802383
0.0567951
0.0334329
0.0110437
0.456405
1.4169
2.52598
3.90399
5.69029
7.99771
10.7525
13.3852
14.8389
15.074
14.8804
14.2754
13.376
12.5698
11.7015
10.7384
9.84688
8.80424
7.61938
6.63903
5.94283
5.3474
4.78074
4.30499
3.85696
3.42129
3.05627
2.72979
2.44239
2.25066
2.13607
2.00728
1.84354
1.69126
1.53908
1.38742
1.26109
1.1432
1.02792
0.926042
0.817605
0.702059
0.606734
0.537843
0.480705
0.429083
0.386883
0.347993
0.310828
0.279991
0.252239
0.227755
0.21189
0.202743
0.191301
0.175603
0.160121
0.14322
0.124464
0.105744
0.0840985
0.0589593
0.0342841
0.0112449
0.431751
1.34554
2.41842
3.78915
5.63826
8.15419
11.3428
14.5283
16.1085
16.094
15.8042
15.0612
13.9499
13.1055
12.1829
11.1167
10.2327
9.11688
7.74962
6.68395
6.01361
5.42777
4.83333
4.36536
3.91113
3.44677
3.07958
2.74357
2.43426
2.25105
2.17224
2.05565
1.87829
1.72553
1.56902
1.40624
1.28176
1.16362
1.04352
0.9451
0.832948
0.704284
0.603247
0.537361
0.482044
0.429436
0.389032
0.350489
0.311662
0.28134
0.253175
0.227057
0.212442
0.207137
0.197152
0.180405
0.165291
0.148317
0.128764
0.110484
0.088256
0.0609899
0.0348741
0.0113344
0.401883
1.25718
2.27789
3.61887
5.50418
8.21879
11.9076
15.8243
17.5243
17.1042
16.745
15.8591
14.465
13.6278
12.6614
11.4555
10.6309
9.44767
7.83604
6.67694
6.07061
5.50572
4.86765
4.42136
3.96423
3.45886
3.09793
2.75338
2.41054
2.23824
2.21162
2.1096
1.90841
1.75878
1.59845
1.41939
1.30074
1.1834
1.05571
0.965064
0.84971
0.70292
0.59547
0.535566
0.482985
0.428231
0.390854
0.352913
0.311386
0.282359
0.253813
0.224936
0.211794
0.211932
0.203605
0.184791
0.170471
0.153512
0.132716
0.115514
0.0928521
0.0628152
0.0351165
0.0112823
0.367434
1.15354
2.10645
3.39313
5.28007
8.16794
12.4214
17.3199
19.1234
18.0631
17.7055
16.6809
14.8932
14.1421
13.1467
11.7353
11.0531
9.81356
7.86636
6.60633
6.12035
5.58874
4.87829
4.47619
4.0206
3.45373
3.1136
2.76258
2.36815
2.20915
2.25799
2.17267
1.93126
1.79183
1.62877
1.42499
1.31873
1.20352
1.06309
0.987015
0.869379
0.697071
0.582537
0.533005
0.484137
0.425071
0.392663
0.355647
0.309679
0.283279
0.254463
0.221089
0.209641
0.217495
0.210991
0.188466
0.175731
0.158918
0.136081
0.120955
0.0980834
0.0643229
0.0349054
0.0110555
0.329148
1.03679
1.9072
3.11381
4.95991
7.97494
12.8446
19.0774
20.9553
18.9059
18.6945
17.5475
15.1931
14.6599
13.6547
11.9259
11.5159
10.2383
7.82272
6.45698
6.17275
5.68705
4.85588
4.53427
4.08628
3.42487
3.12973
2.77597
2.30273
2.15937
2.31653
2.24949
1.94234
1.82593
1.66207
1.42004
1.33689
1.22543
1.06334
1.0124
0.893971
0.68537
0.563298
0.530488
0.486319
0.419232
0.394881
0.359209
0.305978
0.284414
0.255568
0.215093
0.205543
0.224334
0.219751
0.190946
0.181194
0.164718
0.138484
0.126977
0.104221
0.0653407
0.0341174
0.0106198
0.287837
0.909391
1.68414
2.78489
4.54074
7.61106
13.1174
21.1791
23.0868
19.5341
19.7307
18.493
15.3038
15.2006
14.2105
11.9806
12.0423
10.7545
7.6795
6.2096
6.24236
5.81447
4.7852
4.60205
4.16974
3.36186
3.15083
2.80034
2.20828
2.08271
2.3942
2.34617
1.93449
1.86313
1.70148
1.39995
1.357
1.25128
1.05283
1.04321
0.92621
0.665818
0.536272
0.529181
0.490624
0.409517
0.398098
0.364314
0.29938
0.286204
0.25775
0.20637
0.198885
0.233134
0.230472
0.191476
0.187068
0.171201
0.139361
0.133825
0.111632
0.0656103
0.0326163
0.00994401
0.244347
0.774018
1.44199
2.41247
4.02367
7.04774
13.1524
23.733
25.6079
19.8033
20.8484
19.5697
15.1368
15.796
14.8517
11.8304
12.665
11.4061
7.40065
5.8402
6.34966
5.9895
4.64281
4.6889
4.28277
3.24884
3.18335
2.84501
2.07673
1.97076
2.50026
2.47078
1.89691
1.90669
1.75154
1.35788
1.38177
1.2842
1.0261
1.08216
0.969721
0.635553
0.499602
0.530715
0.498503
0.394067
0.403154
0.371952
0.288495
0.289267
0.261867
0.194147
0.18883
0.244814
0.243939
0.188925
0.193701
0.178808
0.137876
0.141851
0.12081
0.0647517
0.0302638
0.00900534
0.19951
0.63338
1.18596
2.00455
3.41498
6.25999
12.824
26.8791
28.6396
19.507
22.1052
20.8543
14.5655
16.4951
15.6328
11.375
13.4297
12.2514
6.93632
5.31961
6.52258
6.23665
4.39405
4.80851
4.44163
3.06248
3.23651
2.9225
1.89739
1.81234
2.64689
2.63396
1.81379
1.96168
1.81869
1.2839
1.41529
1.32867
0.975136
1.13304
1.02926
0.590589
0.451029
0.537304
0.511878
0.370115
0.411246
0.383482
0.271278
0.294474
0.269064
0.177413
0.17426
0.260579
0.261196
0.181653
0.201634
0.188182
0.132828
0.151555
0.132399
0.0622186
0.0269366
0.00779589
0.154115
0.490117
0.921431
1.57073
2.72684
5.23174
11.9561
30.7965
32.3441
18.3564
23.5915
22.4552
13.4115
17.37
16.6307
10.4728
14.4
13.3655
6.21889
4.61332
6.79804
6.58809
3.98931
4.98067
4.66838
2.76945
3.32343
3.04918
1.65639
1.59286
2.84976
2.8497
1.66273
2.03578
1.91189
1.1639
1.46346
1.39093
0.888594
1.20103
1.11096
0.525479
0.387885
0.551864
0.53327
0.33369
0.424079
0.400751
0.244806
0.303047
0.280846
0.154869
0.153714
0.281992
0.283627
0.167342
0.211693
0.20024
0.122526
0.163643
0.147237
0.0572416
0.0225526
0.00632935
0.108872
0.346678
0.653721
1.12162
1.97761
3.96321
10.3071
35.7117
36.9369
15.9565
25.4436
24.5208
11.429
18.5243
17.9514
8.92825
15.6633
14.8441
5.15823
3.68168
7.22335
7.08567
3.35957
5.23344
4.9925
2.32341
3.46254
3.24596
1.33607
1.29372
3.12875
3.13625
1.41283
2.14023
2.0432
0.978341
1.53468
1.47953
0.750756
1.29327
1.22258
0.432939
0.307114
0.578132
0.565964
0.279255
0.444039
0.426231
0.205011
0.316683
0.299129
0.124873
0.125318
0.311031
0.313051
0.142798
0.225087
0.216244
0.104642
0.179101
0.166384
0.0487604
0.0171059
0.00464655
0.0644008
0.205236
0.387761
0.668177
1.19131
2.48071
7.55175
41.9068
42.7017
11.778
27.8583
27.2483
8.28523
20.1022
19.7367
6.47708
17.3384
16.8063
3.63643
2.48055
7.85754
7.78334
2.41117
5.60591
5.45257
1.66146
3.67938
3.53881
0.914308
0.891594
3.50852
3.51728
1.02234
2.29109
2.22862
0.700668
1.64058
1.6059
0.540354
1.41938
1.37377
0.303408
0.205342
0.620759
0.614202
0.199289
0.474416
0.463174
0.146378
0.337713
0.326302
0.0853874
0.0867097
0.350157
0.351839
0.103716
0.243529
0.237899
0.0760388
0.199283
0.191164
0.0353433
0.0107122
0.00281741
0.0212123
0.0676288
0.127894
0.220842
0.396073
0.849258
3.26141
49.7283
50.0075
5.12495
31.111
30.8941
3.53882
22.2998
22.1729
2.76947
19.5844
19.3971
1.502
0.962625
8.77218
8.75002
1.01994
6.15137
6.09818
0.700047
4.00878
3.95929
0.363902
0.35783
4.01915
4.0232
0.436151
2.51061
2.48877
0.295625
1.79696
1.78503
0.229222
1.59226
1.57628
0.124575
0.0789917
0.685379
0.683416
0.0838112
0.519654
0.515775
0.0615834
0.369285
0.365262
0.0339345
0.034972
0.402371
0.403055
0.0444118
0.269389
0.267435
0.0325683
0.226019
0.223199
0.0150963
0.00366483
0.000936566
)
;

boundaryField
{
    left
    {
        type            calculated;
        value           uniform 0;
    }
    right
    {
        type            calculated;
        value           uniform 0;
    }
    interface
    {
        type            calculated;
        value           nonuniform List<scalar> 
64
(
0.0212123
0.0676288
0.127894
0.220842
0.396073
0.849258
3.26141
49.7283
50.0075
5.12495
31.111
30.8941
3.53882
22.2998
22.1729
2.76947
19.5844
19.3971
1.502
0.962625
8.77218
8.75002
1.01994
6.15137
6.09818
0.700047
4.00878
3.95929
0.363902
0.35783
4.01915
4.0232
0.436151
2.51061
2.48877
0.295625
1.79696
1.78503
0.229222
1.59226
1.57628
0.124575
0.0789917
0.685379
0.683416
0.0838112
0.519654
0.515775
0.0615834
0.369285
0.365262
0.0339345
0.034972
0.402371
0.403055
0.0444118
0.269389
0.267435
0.0325683
0.226019
0.223199
0.0150963
0.00366483
0.000936566
)
;
    }
    bottom
    {
        type            calculated;
        value           nonuniform List<scalar> 
64
(
0.0213055
0.0636717
0.105278
0.145553
0.18385
0.219451
0.251614
0.279629
0.302893
0.320973
0.333656
0.340961
0.343125
0.340572
0.333862
0.323641
0.310597
0.295413
0.278743
0.261178
0.243237
0.225351
0.207865
0.191042
0.175068
0.160063
0.146096
0.133189
0.121328
0.110473
0.100565
0.0915303
0.0832925
0.0757737
0.068901
0.0626085
0.0568386
0.0515426
0.0466795
0.0422156
0.0381226
0.034377
0.0309579
0.027846
0.0250224
0.0224681
0.0201633
0.0180876
0.0162203
0.01454
0.0130257
0.0116564
0.0104115
0.00927119
0.00821687
0.00723126
0.00629888
0.00540631
0.00454234
0.00369803
0.00286658
0.00204316
0.00122439
0.000407911
)
;
    }
    defaultFaces
    {
        type            empty;
    }
}


// ************************************************************************* //
