/*--------------------------------*- C++ -*----------------------------------*\
| =========                 |                                                 |
| \\      /  F ield         | OpenFOAM: The Open Source CFD Toolbox           |
|  \\    /   O peration     | Version:  5.x                                   |
|   \\  /    A nd           | Web:      www.OpenFOAM.org                      |
|    \\/     M anipulation  |                                                 |
\*---------------------------------------------------------------------------*/
FoamFile
{
    version     2.0;
    format      ascii;
    class       volScalarField;
    location    "6.5";
    object      gradTx;
}
// * * * * * * * * * * * * * * * * * * * * * * * * * * * * * * * * * * * * * //

dimensions      [0 -1 0 1 0 0 0];

internalField   nonuniform List<scalar> 
2048
(
0.0220722
0.0659702
0.109105
0.1509
0.190698
0.227773
0.261366
0.29075
0.315305
0.334581
0.34835
0.356618
0.359616
0.357762
0.351614
0.341823
0.329078
0.314073
0.297468
0.279868
0.261798
0.243701
0.225931
0.208755
0.192366
0.176891
0.162399
0.148917
0.136434
0.124912
0.114291
0.104503
0.0954732
0.0871285
0.0794027
0.0722379
0.065586
0.0594085
0.053675
0.0483622
0.0434517
0.0389285
0.0347793
0.0309906
0.0275483
0.024436
0.0216355
0.0191264
0.0168865
0.0148926
0.0131201
0.0115445
0.0101411
0.00888571
0.00775531
0.00672838
0.00578533
0.00490877
0.00408372
0.00329748
0.00253959
0.00180146
0.00107615
0.000357954
0.0654553
0.195656
0.323652
0.447751
0.566007
0.676238
0.776149
0.863531
0.936491
0.993665
1.03436
1.05862
1.06713
1.06119
1.04248
1.01296
0.974712
0.929807
0.88022
0.827752
0.773968
0.720177
0.66742
0.616485
0.567931
0.522123
0.479261
0.439414
0.402542
0.368526
0.337187
0.308313
0.281678
0.257064
0.234272
0.213131
0.193498
0.17526
0.15833
0.142639
0.128135
0.114774
0.102519
0.0913302
0.081167
0.0719814
0.0637192
0.0563198
0.0497177
0.043843
0.0386237
0.0339862
0.0298572
0.0261649
0.022841
0.0198213
0.0170478
0.0144689
0.0120403
0.00972463
0.00749111
0.0053147
0.00317525
0.00105626
0.107479
0.321338
0.531762
0.736041
0.930974
1.1129
1.2779
1.42217
1.54245
1.63639
1.70282
1.74182
1.75465
1.74351
1.71131
1.66136
1.59715
1.52215
1.43967
1.35267
1.26375
1.17503
1.08823
1.00458
0.924996
0.850029
0.779987
0.714956
0.654854
0.599463
0.548473
0.501516
0.458212
0.418191
0.381121
0.346722
0.314761
0.285058
0.257472
0.231897
0.20825
0.186467
0.166489
0.148256
0.131702
0.116749
0.10331
0.0912836
0.0805625
0.0710315
0.0625715
0.0550613
0.0483801
0.0424095
0.0370363
0.032155
0.0276699
0.0234967
0.019563
0.015808
0.0121822
0.00864545
0.00516652
0.00171906
0.148425
0.4439
0.73502
1.01819
1.28898
1.54216
1.77204
1.97297
2.14013
2.27003
2.36101
2.41325
2.42867
2.41057
2.36317
2.29125
2.19982
2.09378
1.97777
1.85597
1.73196
1.60868
1.48844
1.37291
1.26325
1.16019
1.0641
0.975043
0.892876
0.81726
0.74773
0.683747
0.624757
0.570231
0.519704
0.472786
0.429162
0.388591
0.350889
0.315917
0.283574
0.253778
0.226455
0.201531
0.178919
0.158513
0.140191
0.123815
0.109235
0.0962896
0.0848143
0.0746407
0.0656007
0.0575295
0.0502697
0.0436744
0.0376111
0.0319634
0.0266322
0.0215352
0.0166054
0.0117894
0.00704786
0.00234583
0.188452
0.563858
0.934417
1.29583
1.64247
1.96741
2.26287
2.52106
2.73523
2.90059
3.01491
3.0786
3.09443
3.06698
3.00202
2.90595
2.78537
2.64672
2.49601
2.33865
2.17923
2.02146
1.86817
1.72141
1.58254
1.45239
1.33133
1.2194
1.11635
1.02169
0.934767
0.854855
0.781198
0.713097
0.649947
0.591255
0.536632
0.485785
0.438495
0.394603
0.353995
0.316581
0.282283
0.251016
0.222676
0.197132
0.174229
0.153789
0.135619
0.119513
0.10526
0.0926461
0.0814544
0.0714742
0.062503
0.0543525
0.0468535
0.0398585
0.0332431
0.0269048
0.0207613
0.0147481
0.00882051
0.00293695
0.227596
0.681374
1.13039
1.56987
1.99304
2.3911
2.75379
3.07064
3.33254
3.5331
3.6695
3.74253
3.75611
3.71639
3.63093
3.50795
3.35577
3.18244
2.99544
2.80142
2.60599
2.41359
2.22753
2.05011
1.88284
1.72655
1.5816
1.44794
1.3252
1.21269
1.10958
1.01486
0.927586
0.846853
0.771919
0.702192
0.637221
0.576673
0.520307
0.467952
0.41949
0.374836
0.333917
0.296645
0.262902
0.232535
0.205353
0.181139
0.159654
0.140648
0.123864
0.10904
0.095913
0.0842242
0.0737253
0.0641856
0.0553991
0.0471878
0.0394031
0.0319249
0.0246576
0.0175277
0.0104883
0.00349371
0.265778
0.796271
1.32283
1.84054
2.34158
2.81498
3.24748
3.62525
3.93616
4.17189
4.32898
4.40888
4.41703
4.36158
4.25219
4.09907
3.91242
3.70197
3.47674
3.24471
3.01249
2.78522
2.56659
2.35908
2.16419
1.98272
1.81496
1.66073
1.51949
1.39039
1.2723
1.16395
1.06412
0.971698
0.885807
0.805765
0.731074
0.661377
0.596422
0.536035
0.480108
0.428571
0.381365
0.338412
0.299585
0.264706
0.233547
0.205849
0.181326
0.159683
0.140616
0.123818
0.108977
0.095786
0.083948
0.073189
0.0632655
0.0539696
0.0451303
0.0366115
0.0283073
0.0201378
0.0120572
0.00401808
0.302808
0.908046
1.51113
2.10746
2.68823
3.24009
3.74605
4.18794
4.54976
4.82077
4.99695
5.0808
5.07982
5.00466
4.86743
4.68057
4.45623
4.20593
3.94029
3.66869
3.39882
3.13642
2.88546
2.64843
2.42675
2.22108
2.03157
1.85792
1.69943
1.555
1.42319
1.3024
1.19109
1.08793
0.99189
0.902225
0.818412
0.740088
0.667001
0.598987
0.535954
0.477862
0.424684
0.376357
0.332755
0.29367
0.258835
0.227941
0.200656
0.176638
0.155538
0.137002
0.120671
0.106186
0.0932001
0.0813931
0.0704829
0.0602325
0.0504503
0.0409867
0.0317278
0.0225909
0.0135347
0.00451248
0.338388
1.01589
1.69419
2.36957
3.03252
3.66692
4.25116
4.76143
5.1767
5.48321
5.67654
5.76085
5.74643
5.64706
5.47771
5.25321
4.98774
4.69463
4.38621
4.07338
3.76495
3.46721
3.18423
2.91835
2.67074
2.44186
2.23169
2.03979
1.86529
1.70683
1.56262
1.43061
1.30891
1.19593
1.09052
0.991881
0.899506
0.813043
0.732252
0.656985
0.587176
0.522827
0.463963
0.410556
0.362476
0.319488
0.281274
0.247471
0.217696
0.19156
0.168672
0.148633
0.131036
0.115467
0.101525
0.0888399
0.0770913
0.0660132
0.0553951
0.0450769
0.0349398
0.0249014
0.014929
0.00497964
0.372125
1.11869
1.87042
2.62525
3.37329
4.09538
4.76409
5.34826
5.8202
6.16245
6.37052
6.45108
6.41825
6.28968
6.0836
5.81738
5.5072
5.16815
4.81441
4.45861
4.11074
3.77756
3.46302
3.16908
2.8965
2.64543
2.41568
2.20668
2.01742
1.84627
1.69101
1.54906
1.41806
1.29616
1.1821
1.07509
0.974667
0.880517
0.79242
0.710242
0.633951
0.563609
0.499318
0.441105
0.38884
0.342246
0.300948
0.264517
0.232518
0.204515
0.180078
0.158767
0.140124
0.123681
0.108975
0.0955807
0.083138
0.0713535
0.0600008
0.0489117
0.0379658
0.0270847
0.0162489
0.00542231
0.403537
1.21507
2.03781
2.87227
3.70877
4.52483
5.28586
5.95094
6.48352
6.86162
7.0813
7.15307
7.09609
6.93286
6.68525
6.37315
6.01461
5.6264
5.22465
4.82405
4.43598
4.06746
3.72201
3.40095
3.10443
2.83222
2.58394
2.35897
2.1562
1.97375
1.80886
1.65828
1.51907
1.38911
1.26706
1.15223
1.04423
0.942806
0.84777
0.758997
0.676482
0.600371
0.530882
0.468119
0.411953
0.362051
0.31796
0.279179
0.245212
0.215584
0.189828
0.167468
0.148001
0.130893
0.115611
0.101673
0.088675
0.0762992
0.0643059
0.0525224
0.0408293
0.0291564
0.0175028
0.00584311
0.432074
1.30345
2.19391
3.10779
4.03648
4.95412
5.81725
6.57208
7.17008
7.58378
7.81103
7.8679
7.78024
7.57645
7.28239
6.92032
6.50987
6.0692
5.61656
5.16929
4.74038
4.33688
3.96143
3.61437
3.29505
3.00275
2.73697
2.4971
2.28203
2.08971
1.91672
1.75889
1.61255
1.47532
1.34588
1.22368
1.10852
1.00021
0.898585
0.803506
0.714989
0.633288
0.558793
0.491721
0.431938
0.379025
0.332432
0.291571
0.255883
0.224858
0.198001
0.174809
0.154733
0.137169
0.121502
0.107179
0.0937575
0.0808978
0.0683502
0.055941
0.0435542
0.0311318
0.0186985
0.00624427
0.457137
1.38207
2.33595
3.32843
4.35328
5.3815
6.3589
7.21457
7.88361
8.33202
8.56154
8.59616
8.47037
8.21982
7.87445
7.45853
6.99282
6.49634
5.98967
5.49375
5.02362
4.58585
4.18161
3.8099
3.46899
3.15762
2.87531
2.62153
2.39534
2.19463
2.01519
1.85154
1.69913
1.55535
1.41902
1.28985
1.16788
1.05305
0.945156
0.844042
0.749708
0.662539
0.583188
0.512039
0.448924
0.393302
0.344499
0.301821
0.264645
0.232435
0.204683
0.180863
0.160392
0.142583
0.126716
0.112163
0.0984422
0.0851973
0.0721734
0.0591997
0.0461641
0.033025
0.0198424
0.00662744
0.478109
1.44904
2.46086
3.53027
4.65526
5.80456
6.91128
7.88173
8.62833
9.10945
9.33434
9.33795
9.1656
8.86188
8.46057
7.98728
7.46335
6.90768
6.34344
5.79673
5.28532
4.81446
4.38295
3.98816
3.62696
3.29751
2.99953
2.73271
2.49649
2.28895
2.10489
1.93697
1.77948
1.62978
1.48695
1.35108
1.22264
1.10162
0.987774
0.88089
0.780885
0.688302
0.604199
0.529197
0.463049
0.405027
0.354305
0.310066
0.271618
0.238419
0.209958
0.185705
0.165048
0.147208
0.131329
0.116691
0.102786
0.0892447
0.0758137
0.0623297
0.0486819
0.0348486
0.0209389
0.00699332
0.49438
1.50251
2.56542
3.70892
4.93776
6.22014
7.47475
8.57761
9.40913
9.91915
10.1306
10.0928
9.86441
9.50109
9.03968
8.50601
7.92152
7.30325
6.6772
6.07734
5.52509
5.0229
4.566
4.14994
3.76983
3.42315
3.11026
2.83113
2.58581
2.37308
2.1865
2.01597
1.85431
1.69918
1.55011
1.40772
1.27309
1.14622
1.02673
0.914351
0.80878
0.710746
0.621939
0.543315
0.474456
0.414351
0.362006
0.316452
0.276928
0.242915
0.213912
0.189403
0.168769
0.151122
0.135418
0.120829
0.106843
0.0930851
0.0793072
0.0653617
0.0511303
0.0366131
0.0219896
0.00734143
0.505392
1.54067
2.64635
3.85957
5.19523
6.62412
8.04945
9.30723
10.2318
10.7641
10.9509
10.8597
10.5646
10.1355
9.61056
9.01407
8.36765
7.68336
6.99018
6.33443
5.74254
5.21152
4.7314
4.29616
3.89854
3.53532
3.20817
2.91725
2.66352
2.44735
2.26075
2.08943
1.92433
1.76412
1.60893
1.46005
1.31949
1.18713
1.06231
0.944741
0.833677
0.73003
0.636496
0.554508
0.483294
0.421432
0.367763
0.321131
0.280702
0.246028
0.21663
0.19202
0.17162
0.154404
0.139061
0.124642
0.110666
0.0967607
0.0826863
0.0683251
0.0535319
0.0383266
0.0229926
0.00766967
0.510668
1.56193
2.70048
3.97717
5.42127
7.01122
8.63525
10.077
11.1033
11.6467
11.7954
11.6373
11.263
10.763
10.1719
9.51071
8.80246
8.04877
7.28138
6.56646
5.93733
5.38089
4.87986
4.42785
4.01419
3.63478
3.29396
2.99156
2.72972
2.51199
2.32845
2.15833
1.99023
1.82514
1.66381
1.50831
1.3621
1.22461
1.09476
0.972398
0.855883
0.746284
0.64792
0.562883
0.489723
0.426432
0.371747
0.324264
0.283065
0.247863
0.218191
0.193611
0.173656
0.157134
0.142342
0.128189
0.114305
0.100311
0.0859784
0.0712488
0.0559103
0.039994
0.0239415
0.00797388
0.509852
1.56497
2.72493
4.05653
5.60859
7.37465
9.23146
10.8953
12.0323
12.5688
12.6637
12.4235
11.9558
11.3811
10.7226
9.99494
9.22723
8.40092
7.54946
6.77139
6.10922
5.53189
5.01213
4.5462
4.11802
3.72226
3.36842
3.05461
2.7843
2.56705
2.39054
2.22382
2.05266
1.88275
1.71515
1.55261
1.40113
1.25895
1.12432
0.997692
0.875752
0.759609
0.656211
0.568544
0.49392
0.429511
0.374132
0.326017
0.284137
0.248523
0.218675
0.194215
0.174922
0.159401
0.145352
0.131526
0.117804
0.10377
0.089204
0.0741617
0.0582916
0.0416164
0.0248239
0.00824738
0.502739
1.54889
2.71726
4.09257
5.749
7.7058
9.83649
11.773
13.0292
13.5305
13.5546
13.2166
12.6376
11.9872
11.2618
10.4652
9.64403
8.74222
7.79256
6.94641
6.25826
5.66589
5.12889
4.65255
4.21144
3.79834
3.43238
3.10705
2.8269
2.61233
2.44816
2.28726
2.11214
1.93744
1.76334
1.59299
1.43677
1.29043
1.15115
1.02103
0.893706
0.770047
0.661296
0.571599
0.496087
0.430822
0.375099
0.326565
0.284028
0.248111
0.218163
0.193857
0.175448
0.161301
0.148187
0.134695
0.121205
0.107173
0.0923735
0.0770936
0.0607071
0.04319
0.0256199
0.00848052
0.489294
1.51328
2.67571
4.08057
5.83358
7.99372
10.4472
12.7248
14.1072
14.5289
14.4665
14.0147
13.3015
12.5793
11.7891
10.9191
10.0559
9.07651
8.00792
7.08765
6.38494
5.78487
5.23052
4.74843
4.29616
3.8633
3.48683
3.14973
2.85679
2.64731
2.50271
2.35028
2.16895
1.98963
1.8088
1.62926
1.46923
1.31937
1.17528
1.0429
0.91027
0.777566
0.663009
0.572175
0.496465
0.430498
0.374833
0.326097
0.282828
0.246727
0.216738
0.192537
0.175244
0.162944
0.150958
0.137722
0.124545
0.110552
0.0954829
0.0800771
0.0631967
0.0447042
0.026301
0.00866026
0.469669
1.45827
2.5993
4.01646
5.8529
8.22472
11.0577
13.7705
15.2834
15.557
15.3973
14.8176
13.9377
13.1557
12.3054
11.352
10.4674
9.40966
8.19143
7.18981
6.49057
5.89175
5.31677
4.83561
4.37423
3.9169
3.53296
3.18386
2.87277
2.67095
2.55607
2.41492
2.22299
2.03978
1.85208
1.66101
1.49872
1.34618
1.1966
1.06384
0.926123
0.782014
0.661061
0.570441
0.495353
0.42863
0.373532
0.324821
0.280596
0.244479
0.214498
0.190228
0.174293
0.164465
0.153794
0.140606
0.127859
0.113944
0.0985061
0.08315
0.0658141
0.0461393
0.0268278
0.00877006
0.444198
1.38455
2.48804
3.89721
5.79732
8.38187
11.6581
14.9363
16.5796
16.6
16.3455
15.6268
14.5325
13.7165
12.8133
11.7565
10.8848
9.75044
8.33696
7.24571
6.5777
5.99066
5.38629
4.91625
4.44834
3.958
3.57225
3.21125
2.87294
2.68154
2.61073
2.48377
2.27345
2.08836
1.89394
1.68739
1.52559
1.37141
1.21466
1.08456
0.942169
0.783067
0.655006
0.566635
0.493133
0.425237
0.371403
0.322981
0.277339
0.24148
0.211565
0.186867
0.172537
0.166034
0.156853
0.143301
0.131188
0.117397
0.101385
0.0863594
0.0686335
0.0474616
0.027149
0.00879006
0.413388
1.2934
2.34298
3.72112
5.65761
8.44471
12.232
16.2578
18.0242
17.6321
17.3109
16.4481
15.066
14.2637
13.3185
12.1199
11.3172
10.1116
8.43539
7.24565
6.65077
6.08743
5.43578
4.9931
4.52205
3.98409
3.60669
3.23458
2.85453
2.67643
2.67011
2.56014
2.31852
2.136
1.9355
1.70696
1.55032
1.39586
1.22856
1.10593
0.959627
0.780151
0.644197
0.561115
0.490302
0.420213
0.368683
0.320868
0.272986
0.237858
0.208099
0.182339
0.169866
0.167871
0.160327
0.145694
0.134581
0.120978
0.104012
0.0897672
0.0717583
0.0486175
0.0271999
0.0086978
0.377888
1.18659
2.16626
3.48821
5.42564
8.38917
12.7533
17.7828
19.6553
18.611
18.2968
17.2936
15.5093
14.8035
13.8309
12.4216
11.7773
10.5114
8.47326
7.17681
6.71701
6.19019
5.45894
5.06987
4.60026
3.99048
3.63902
3.25781
2.81358
2.65168
2.73887
2.6484
2.3548
2.18363
1.9785
1.71736
1.57371
1.42073
1.2367
1.1291
0.98016
0.772331
0.627748
0.554419
0.487511
0.413263
0.365652
0.318855
0.267348
0.233774
0.204322
0.176472
0.166098
0.170268
0.164468
0.147573
0.138112
0.124789
0.10621
0.0934587
0.0753328
0.0495234
0.0269031
0.00846966
0.338464
1.06635
1.96105
3.20042
5.09531
8.18798
13.1814
19.5749
21.5233
19.4698
19.3123
18.1847
15.819
15.3479
14.3671
12.6293
12.283
10.9754
8.43107
7.02253
6.78744
6.31008
5.44492
5.1518
4.68989
3.96928
3.67309
3.28669
2.74458
2.60167
2.82342
2.75428
2.37654
2.23277
2.02554
1.7149
1.59708
1.4478
1.2364
1.15563
1.00602
0.758168
0.604485
0.547338
0.485618
0.403801
0.362667
0.317426
0.260061
0.229431
0.200538
0.169012
0.160957
0.173612
0.169598
0.148582
0.141896
0.128988
0.107694
0.097555
0.0795564
0.0500521
0.0261698
0.00808307
0.29595
0.935227
1.73146
2.86187
4.6636
7.81184
13.4553
21.7184
23.6966
20.1077
20.3772
19.1565
15.9321
15.9178
14.953
12.6933
12.8595
11.5386
8.2809
6.76154
6.87822
6.46221
5.3762
5.24647
4.8006
3.90798
3.71439
3.32936
2.64
2.5186
2.9324
2.88537
2.37471
2.28591
2.08053
1.6939
1.62246
1.4797
1.22348
1.18765
1.04026
0.735519
0.572905
0.541009
0.485752
0.390819
0.36021
0.317232
0.250506
0.225109
0.197174
0.159608
0.154037
0.17842
0.176147
0.14816
0.146116
0.133812
0.108036
0.10223
0.0847007
0.0500139
0.0249039
0.00751942
0.25121
0.795938
1.48235
2.4788
4.1317
7.23155
13.4857
24.3239
26.2671
20.3766
21.5273
20.263
15.7564
16.5468
15.6277
12.54
13.5422
12.2485
7.98362
6.36732
7.01213
6.66693
5.22594
5.36495
4.94598
3.78756
3.7708
3.39708
2.48978
2.39185
3.07736
3.05172
2.33567
2.34702
2.14914
1.64595
1.65304
1.52023
1.19165
1.22814
1.0869
0.701297
0.53115
0.537023
0.489387
0.372717
0.358953
0.319146
0.237714
0.221201
0.194808
0.147786
0.14477
0.185374
0.184681
0.145461
0.151059
0.139616
0.106596
0.107737
0.0911298
0.0491309
0.0230096
0.00676755
0.205098
0.651271
1.21904
2.05942
3.50608
6.42162
13.1441
27.5346
29.3585
20.0645
22.8224
21.5832
15.1602
17.2865
16.4483
12.0628
14.3808
13.1675
7.4852
5.80752
7.22022
6.9513
4.95451
5.52336
5.14478
3.5801
3.85361
3.50498
2.28069
2.20729
3.27347
3.26662
2.23953
2.42238
2.23943
1.55885
1.69359
1.57482
1.13169
1.28122
1.15127
0.651152
0.476989
0.537537
0.498446
0.347087
0.359857
0.324342
0.220233
0.218262
0.194212
0.132922
0.132383
0.195362
0.195957
0.139256
0.157165
0.14691
0.102459
0.114436
0.0993235
0.0470041
0.0204031
0.00582745
0.15842
0.503933
0.947071
1.61358
2.7992
5.36566
12.2506
31.5339
33.1367
18.8751
24.3563
23.229
13.9579
18.213
17.4953
11.1109
15.4437
14.3767
6.71251
5.04374
7.54353
7.35098
4.50527
5.74488
5.42258
3.24581
3.97879
3.6729
1.99566
1.94656
3.54033
3.54755
2.05813
2.52149
2.36256
1.41527
1.75111
1.65101
1.03054
1.35265
1.24019
0.579102
0.407843
0.545396
0.515408
0.310444
0.364291
0.334381
0.195965
0.217085
0.196395
0.114217
0.115841
0.209526
0.210974
0.127806
0.165087
0.156412
0.0943306
0.122846
0.109903
0.0430716
0.0170302
0.00471339
0.111906
0.356435
0.671879
1.15215
2.02988
4.06394
10.5579
36.5536
37.8221
16.4029
26.27
25.3533
11.8938
19.4351
18.8796
9.47606
16.8252
15.9791
5.56828
4.03153
8.03473
7.91254
3.79949
6.06231
5.81361
2.72943
4.16873
3.92619
1.61301
1.58616
3.90279
3.91738
1.75265
2.65833
2.53362
1.19123
1.83558
1.75904
0.870096
1.45032
1.36231
0.477087
0.320842
0.564237
0.543459
0.257905
0.374194
0.351317
0.161972
0.218786
0.202639
0.0906646
0.093798
0.229306
0.231054
0.108711
0.175771
0.169109
0.0804332
0.13369
0.123655
0.0365576
0.0128896
0.00345575
0.06619
0.211005
0.39852
0.686329
1.22271
2.54342
7.73357
42.8826
43.7053
12.1046
28.7666
28.1602
8.62164
21.1044
20.7504
6.87702
18.6529
18.1027
3.92547
2.72109
8.75948
8.69628
2.7304
6.52113
6.36283
1.95598
4.45434
4.29642
1.10576
1.09665
4.39172
4.40577
1.27072
2.85288
2.77247
0.854172
1.96093
1.91258
0.62584
1.58504
1.52838
0.334468
0.212939
0.598587
0.586652
0.18282
0.392268
0.377803
0.114246
0.224923
0.214534
0.0610252
0.0645354
0.256491
0.257927
0.0787402
0.190547
0.18632
0.0583681
0.147973
0.141564
0.0264128
0.00806452
0.00210039
0.0218011
0.0695293
0.13144
0.226836
0.4065
0.870652
3.33909
50.8753
51.1642
5.26579
32.1303
31.9146
3.68229
23.4264
23.3036
2.9416
21.0976
20.9038
1.62112
1.05851
9.79749
9.77944
1.15649
7.18313
7.12822
0.825981
4.87763
4.82192
0.440832
0.441745
5.04475
5.05084
0.543189
3.13292
3.10478
0.36084
2.14609
2.12941
0.265299
1.7713
1.75148
0.137463
0.0810822
0.653912
0.650111
0.0763483
0.422209
0.417213
0.0474495
0.237635
0.233997
0.0238041
0.0258978
0.293256
0.293833
0.0336243
0.211236
0.209772
0.0249664
0.167058
0.164829
0.0112451
0.00276177
0.000704462
)
;

boundaryField
{
    left
    {
        type            calculated;
        value           uniform 0;
    }
    right
    {
        type            calculated;
        value           uniform 0;
    }
    interface
    {
        type            calculated;
        value           nonuniform List<scalar> 
64
(
0.0218011
0.0695293
0.13144
0.226836
0.4065
0.870652
3.33909
50.8753
51.1642
5.26579
32.1303
31.9146
3.68229
23.4264
23.3036
2.9416
21.0976
20.9038
1.62112
1.05851
9.79749
9.77944
1.15649
7.18313
7.12822
0.825981
4.87763
4.82192
0.440832
0.441745
5.04475
5.05084
0.543189
3.13292
3.10478
0.36084
2.14609
2.12941
0.265299
1.7713
1.75148
0.137463
0.0810822
0.653912
0.650111
0.0763483
0.422209
0.417213
0.0474495
0.237635
0.233997
0.0238041
0.0258978
0.293256
0.293833
0.0336243
0.211236
0.209772
0.0249664
0.167058
0.164829
0.0112451
0.00276177
0.000704462
)
;
    }
    bottom
    {
        type            calculated;
        value           nonuniform List<scalar> 
64
(
0.0220722
0.0659702
0.109105
0.1509
0.190698
0.227773
0.261366
0.29075
0.315305
0.334581
0.34835
0.356618
0.359616
0.357762
0.351614
0.341823
0.329078
0.314073
0.297468
0.279868
0.261798
0.243701
0.225931
0.208755
0.192366
0.176891
0.162399
0.148917
0.136434
0.124912
0.114291
0.104503
0.0954732
0.0871285
0.0794027
0.0722379
0.065586
0.0594085
0.053675
0.0483622
0.0434517
0.0389285
0.0347793
0.0309906
0.0275483
0.024436
0.0216355
0.0191264
0.0168865
0.0148926
0.0131201
0.0115445
0.0101411
0.00888571
0.00775531
0.00672838
0.00578533
0.00490877
0.00408372
0.00329748
0.00253959
0.00180146
0.00107615
0.000357954
)
;
    }
    defaultFaces
    {
        type            empty;
    }
}


// ************************************************************************* //
