/*--------------------------------*- C++ -*----------------------------------*\
| =========                 |                                                 |
| \\      /  F ield         | OpenFOAM: The Open Source CFD Toolbox           |
|  \\    /   O peration     | Version:  5.x                                   |
|   \\  /    A nd           | Web:      www.OpenFOAM.org                      |
|    \\/     M anipulation  |                                                 |
\*---------------------------------------------------------------------------*/
FoamFile
{
    version     2.0;
    format      ascii;
    class       volScalarField;
    location    "2.1";
    object      gradTy;
}
// * * * * * * * * * * * * * * * * * * * * * * * * * * * * * * * * * * * * * //

dimensions      [0 -1 0 1 0 0 0];

internalField   nonuniform List<scalar> 
2048
(
-22.0413
-21.9628
-21.8066
-21.5751
-21.2714
-20.9002
-20.4678
-19.9818
-19.451
-18.8854
-18.2954
-17.6915
-17.0838
-16.4815
-15.8926
-15.3241
-14.7813
-14.2682
-13.7876
-13.3408
-12.9285
-12.5502
-12.2049
-11.8912
-11.6072
-11.3509
-11.1202
-10.9129
-10.7268
-10.5601
-10.4107
-10.2771
-10.1575
-10.0506
-9.95504
-9.86973
-9.79362
-9.72581
-9.66545
-9.61181
-9.56421
-9.52203
-9.48471
-9.45171
-9.42258
-9.39688
-9.37421
-9.35423
-9.33659
-9.32104
-9.3073
-9.29516
-9.28444
-9.27496
-9.26661
-9.25926
-9.25285
-9.24731
-9.24259
-9.23868
-9.23556
-9.23321
-9.23165
-9.23087
-22.1046
-22.0252
-21.8674
-21.6331
-21.3256
-20.9494
-20.5108
-20.0176
-19.4788
-18.9047
-18.3062
-17.6942
-17.0789
-16.47
-15.8756
-15.3027
-14.7566
-14.2413
-13.7594
-13.3122
-12.9001
-12.5226
-12.1785
-11.8663
-11.5839
-11.3294
-11.1003
-10.8947
-10.7103
-10.545
-10.3971
-10.2647
-10.1463
-10.0404
-9.94573
-9.86123
-9.78586
-9.71871
-9.65895
-9.60585
-9.55875
-9.51702
-9.4801
-9.44749
-9.41871
-9.39332
-9.37093
-9.3512
-9.3338
-9.31844
-9.30488
-9.29289
-9.2823
-9.27293
-9.26466
-9.25738
-9.25101
-9.2455
-9.24081
-9.23691
-9.23379
-9.23145
-9.22988
-9.2291
-22.2249
-22.144
-21.9831
-21.7438
-21.4291
-21.0434
-20.593
-20.0859
-19.5316
-18.9413
-18.3264
-17.6986
-17.069
-16.4474
-15.8426
-15.2613
-14.7091
-14.1897
-13.7055
-13.2576
-12.8461
-12.4702
-12.1285
-11.8191
-11.5398
-11.2885
-11.0628
-10.8604
-10.679
-10.5166
-10.3713
-10.2413
-10.125
-10.0211
-9.92818
-9.84522
-9.77123
-9.70532
-9.64668
-9.59461
-9.54843
-9.50755
-9.47142
-9.43952
-9.41139
-9.3866
-9.36475
-9.3455
-9.32853
-9.31355
-9.30032
-9.28862
-9.27826
-9.26909
-9.26098
-9.25382
-9.24755
-9.2421
-9.23744
-9.23356
-9.23045
-9.2281
-9.22653
-9.22575
-22.3956
-22.3128
-22.1476
-21.9015
-21.5768
-21.1778
-20.7105
-20.1834
-19.6068
-18.9929
-18.3542
-17.7038
-17.0534
-16.4139
-15.7941
-15.2012
-14.6404
-14.1154
-13.6283
-13.1796
-12.7692
-12.3958
-12.0575
-11.7522
-11.4776
-11.231
-11.01
-10.8121
-10.6351
-10.4768
-10.3353
-10.2086
-10.0954
-9.99411
-9.90361
-9.82281
-9.75075
-9.68656
-9.62949
-9.57884
-9.53396
-9.49428
-9.45924
-9.42834
-9.40113
-9.37717
-9.35608
-9.33751
-9.32114
-9.3067
-9.29393
-9.28263
-9.27261
-9.26372
-9.25583
-9.24884
-9.24269
-9.23732
-9.23271
-9.22885
-9.22574
-9.2234
-9.22182
-9.22103
-22.6111
-22.526
-22.356
-22.1017
-21.7649
-21.3492
-20.8605
-20.3076
-19.7021
-19.0574
-18.388
-17.7082
-17.0314
-16.369
-15.7304
-15.1229
-14.5516
-14.0199
-13.5294
-13.0803
-12.6716
-12.3017
-11.9681
-11.6683
-11.3996
-11.1591
-10.9441
-10.7521
-10.5806
-10.4274
-10.2905
-10.1681
-10.0586
-9.96069
-9.87317
-9.79502
-9.72533
-9.66328
-9.60815
-9.55926
-9.51599
-9.47779
-9.44411
-9.41446
-9.38839
-9.36547
-9.34533
-9.3276
-9.31198
-9.2982
-9.28602
-9.27521
-9.26561
-9.25706
-9.24944
-9.24266
-9.23665
-9.23138
-9.22682
-9.22298
-9.21987
-9.21751
-9.21592
-9.21513
-22.8662
-22.7788
-22.6038
-22.3406
-21.9902
-21.555
-21.0407
-20.4566
-19.8156
-19.1331
-18.426
-17.7105
-17.0016
-16.3118
-15.651
-15.0266
-14.4434
-13.9043
-13.4105
-12.9614
-12.5554
-12.19
-11.8625
-11.5695
-11.308
-11.0748
-10.8671
-10.6821
-10.5171
-10.37
-10.2386
-10.1211
-10.016
-9.92197
-9.83789
-9.76279
-9.69584
-9.63625
-9.58335
-9.53649
-9.49509
-9.4586
-9.42651
-9.39832
-9.37359
-9.35188
-9.33283
-9.31609
-9.30135
-9.28835
-9.27684
-9.26661
-9.2575
-9.24934
-9.24204
-9.23549
-9.22964
-9.22447
-9.21996
-9.21613
-9.21301
-9.21063
-9.20901
-9.20821
-23.1562
-23.0669
-22.8871
-22.6152
-22.2502
-21.7934
-21.2497
-20.629
-19.9458
-19.2184
-18.4664
-17.709
-16.9628
-16.2416
-15.5556
-14.9123
-14.3161
-13.7695
-13.2726
-12.8243
-12.4221
-12.0628
-11.7426
-11.4578
-11.2048
-10.9802
-10.7809
-10.6038
-10.4464
-10.3061
-10.1809
-10.069
-9.96873
-9.87898
-9.79869
-9.72697
-9.66303
-9.60616
-9.55572
-9.51112
-9.47179
-9.43721
-9.40688
-9.38033
-9.35709
-9.33675
-9.31893
-9.30329
-9.28953
-9.27739
-9.26663
-9.25705
-9.24848
-9.24077
-9.23381
-9.22751
-9.22183
-9.21676
-9.21229
-9.20846
-9.20531
-9.20289
-9.20124
-9.20042
-23.4766
-23.3859
-23.2024
-22.9225
-22.543
-22.0631
-21.4866
-20.8237
-20.0914
-19.3115
-18.5075
-17.7018
-16.9133
-16.157
-15.4435
-14.7799
-14.1702
-13.616
-13.1168
-12.6705
-12.2736
-11.9217
-11.6103
-11.335
-11.0918
-10.877
-10.6871
-10.519
-10.3699
-10.2372
-10.1188
-10.0128
-9.91782
-9.83267
-9.75643
-9.68831
-9.62759
-9.57363
-9.52583
-9.48364
-9.44654
-9.41404
-9.38563
-9.36085
-9.33924
-9.32038
-9.3039
-9.28946
-9.27676
-9.26556
-9.25562
-9.24674
-9.23876
-9.23152
-9.22493
-9.2189
-9.21339
-9.20841
-9.20396
-9.20011
-9.1969
-9.19443
-9.19273
-9.19188
-23.8231
-23.732
-23.5463
-23.2603
-22.8673
-22.3636
-21.7511
-21.0404
-20.2515
-19.411
-18.5474
-17.6871
-16.8516
-16.057
-15.3139
-14.6291
-14.0057
-13.4445
-12.9441
-12.5013
-12.1111
-11.7683
-11.4673
-11.2029
-10.9708
-10.7667
-10.5872
-10.4289
-10.2888
-10.1644
-10.0533
-9.95367
-9.86421
-9.78387
-9.71185
-9.64747
-9.59011
-9.53919
-9.49416
-9.45452
-9.41977
-9.38945
-9.36309
-9.34021
-9.32034
-9.30307
-9.28801
-9.27484
-9.26328
-9.25307
-9.244
-9.23587
-9.22851
-9.22178
-9.21556
-9.2098
-9.20447
-9.19956
-9.19512
-9.19121
-9.18793
-9.18537
-9.18361
-9.18273
-24.1911
-24.101
-23.9158
-23.6263
-23.2221
-22.6947
-22.0434
-21.279
-20.4253
-19.5153
-18.5841
-17.6628
-16.7759
-15.9402
-15.1662
-14.4597
-13.8229
-13.2556
-12.7554
-12.3177
-11.9363
-11.6043
-11.3152
-11.0632
-10.8432
-10.6509
-10.4826
-10.3348
-10.2045
-10.0889
-9.98546
-9.8925
-9.80873
-9.7333
-9.66559
-9.60505
-9.55114
-9.50334
-9.46116
-9.42414
-9.39182
-9.36379
-9.33957
-9.31869
-9.30066
-9.28505
-9.27149
-9.25965
-9.24927
-9.2401
-9.23194
-9.22459
-9.21789
-9.21168
-9.20586
-9.20037
-9.19519
-9.19034
-9.18587
-9.18188
-9.17849
-9.17582
-9.17397
-9.17304
-24.5763
-24.4891
-24.3075
-24.0187
-23.6066
-23.057
-22.3646
-21.5399
-20.6121
-19.6228
-18.6154
-17.6268
-16.6843
-15.8055
-14.9999
-14.2718
-13.6222
-13.0499
-12.5514
-12.1209
-11.7504
-11.4313
-11.1558
-10.9173
-10.7104
-10.5308
-10.3745
-10.238
-10.118
-10.0117
-9.91629
-9.83013
-9.75211
-9.68162
-9.61822
-9.56153
-9.51111
-9.46648
-9.4272
-9.39284
-9.36301
-9.33733
-9.31535
-9.29655
-9.28044
-9.26656
-9.25454
-9.24407
-9.23491
-9.22681
-9.21959
-9.21306
-9.20703
-9.20136
-9.19594
-9.19072
-9.18568
-9.18087
-9.17635
-9.17223
-9.16868
-9.16586
-9.16391
-9.16293
-24.9742
-24.892
-24.7183
-24.4355
-24.0207
-23.4515
-22.7162
-21.8242
-20.8113
-19.7315
-18.6388
-17.5766
-16.5752
-15.6518
-14.8143
-14.0653
-13.4039
-12.8278
-12.333
-11.9122
-11.555
-11.2507
-10.9904
-10.7667
-10.5739
-10.4077
-10.264
-10.1394
-10.0303
-9.93366
-9.8466
-9.7673
-9.69499
-9.62935
-9.57022
-9.51737
-9.47043
-9.42898
-9.39261
-9.36093
-9.33361
-9.31033
-9.29065
-9.27402
-9.25989
-9.24779
-9.23735
-9.22828
-9.22035
-9.21335
-9.20709
-9.20139
-9.19606
-9.19094
-9.18592
-9.18096
-9.17605
-9.17125
-9.16663
-9.16235
-9.15859
-9.15559
-9.1535
-9.15246
-25.38
-25.3056
-25.1449
-24.8749
-24.4642
-23.88
-23.1007
-22.1332
-21.0224
-19.8394
-18.6518
-17.5097
-16.4465
-15.4782
-14.6094
-13.8404
-13.1686
-12.5902
-12.1011
-11.6926
-11.3514
-11.0641
-10.8205
-10.6127
-10.4349
-10.2826
-10.1522
-10.0398
-9.94223
-9.85574
-9.77717
-9.70467
-9.6379
-9.57697
-9.52198
-9.4729
-9.42944
-9.39115
-9.35767
-9.32866
-9.30384
-9.28298
-9.26567
-9.25128
-9.23919
-9.2289
-9.22007
-9.2124
-9.20572
-9.19982
-9.19455
-9.1897
-9.18509
-9.18052
-9.1759
-9.17118
-9.16639
-9.16157
-9.15682
-9.15231
-9.1483
-9.14506
-9.14282
-9.14169
-25.7892
-25.7255
-25.5836
-25.3347
-24.9372
-24.3446
-23.5214
-22.469
-21.2445
-19.9439
-18.6512
-17.4233
-16.2966
-15.2839
-14.385
-13.5978
-12.9169
-12.3374
-11.8563
-11.4634
-11.1412
-10.873
-10.6476
-10.4567
-10.2943
-10.1565
-10.0397
-9.9402
-9.85451
-9.77863
-9.7087
-9.64281
-9.58131
-9.52485
-9.47382
-9.42843
-9.38841
-9.35325
-9.32264
-9.29624
-9.27387
-9.25546
-9.24059
-9.22852
-9.21851
-9.21006
-9.20283
-9.19657
-9.19113
-9.18634
-9.18205
-9.17808
-9.1742
-9.1702
-9.16597
-9.16148
-9.15679
-9.15192
-9.147
-9.14221
-9.13787
-9.13434
-9.13192
-9.1307
-26.197
-26.1473
-26.0309
-25.8127
-25.4399
-24.8483
-23.9827
-22.8344
-21.4764
-20.0417
-18.634
-17.3146
-16.1236
-15.0685
-14.1414
-13.3381
-12.6498
-12.07
-11.5992
-11.2256
-10.9259
-10.679
-10.4731
-10.2999
-10.1532
-10.0302
-9.92744
-9.84102
-9.76777
-9.70305
-9.64186
-9.5822
-9.52556
-9.47329
-9.42598
-9.38419
-9.34759
-9.3155
-9.28771
-9.26387
-9.24386
-9.22788
-9.21555
-9.20589
-9.19799
-9.19139
-9.18576
-9.18088
-9.17666
-9.17298
-9.16968
-9.16659
-9.16348
-9.16006
-9.15619
-9.15192
-9.1473
-9.14236
-9.13723
-9.13209
-9.12734
-9.12346
-9.12084
-9.11952
-26.5988
-26.5665
-26.4827
-26.3064
-25.9723
-25.3946
-24.4903
-23.2332
-21.7163
-20.129
-18.5966
-17.1803
-15.926
-14.8322
-13.8791
-13.0625
-12.3685
-11.7885
-11.3301
-10.9806
-10.7073
-10.4834
-10.2982
-10.1434
-10.0124
-9.90436
-9.81593
-9.74278
-9.68253
-9.62963
-9.57728
-9.52323
-9.47093
-9.42251
-9.37863
-9.34036
-9.30718
-9.27809
-9.25307
-9.23171
-9.21391
-9.20034
-9.19066
-9.18351
-9.17775
-9.173
-9.16896
-9.16541
-9.16239
-9.15981
-9.15748
-9.15531
-9.15299
-9.15014
-9.14662
-9.14255
-9.138
-9.13296
-9.12758
-9.12202
-9.11675
-9.11245
-9.10961
-9.10819
-26.9901
-26.9786
-26.9348
-26.8126
-26.5339
-25.9873
-25.0517
-23.6704
-21.9609
-20.2006
-18.5357
-17.0168
-15.7023
-14.5757
-13.5986
-12.7721
-12.0747
-11.4927
-11.0491
-10.7295
-10.4874
-10.2877
-10.1242
-9.98832
-9.87253
-9.77952
-9.70572
-9.64579
-9.59916
-9.55903
-9.51561
-9.46619
-9.41758
-9.3727
-9.33187
-9.29707
-9.26738
-9.24115
-9.21886
-9.1999
-9.18406
-9.17289
-9.16603
-9.16153
-9.15788
-9.15496
-9.15249
-9.15021
-9.14837
-9.14686
-9.14549
-9.14426
-9.14278
-9.14052
-9.13729
-9.13341
-9.12892
-9.12376
-9.11809
-9.11204
-9.10612
-9.10132
-9.09826
-9.09676
-27.3666
-27.3791
-27.3827
-27.3277
-27.1239
-26.6308
-25.6763
-24.1531
-22.205
-20.2503
-18.4486
-16.8201
-15.4512
-14.3008
-13.3005
-12.4689
-11.7707
-11.1824
-10.7558
-10.4739
-10.2684
-10.0932
-9.95207
-9.83579
-9.73404
-9.65611
-9.59733
-9.55017
-9.51789
-9.49191
-9.45755
-9.41123
-9.36557
-9.324
-9.2857
-9.2544
-9.22836
-9.20478
-9.18522
-9.1686
-9.15433
-9.14551
-9.14174
-9.14006
-9.13848
-9.13736
-9.13642
-9.13531
-9.13461
-9.13419
-9.13373
-9.13346
-9.1329
-9.13123
-9.12823
-9.12451
-9.12009
-9.11478
-9.10883
-9.10219
-9.09546
-9.09007
-9.0868
-9.08525
-27.7244
-27.7638
-27.8217
-27.8472
-27.7403
-27.3294
-26.3758
-24.6911
-22.4398
-20.2704
-18.3341
-16.5852
-15.1716
-14.0105
-12.9848
-12.1545
-11.4599
-10.8563
-10.449
-10.2154
-10.0532
-9.90081
-9.78274
-9.68706
-9.59708
-9.5344
-9.49135
-9.45581
-9.43881
-9.42898
-9.40392
-9.35832
-9.31484
-9.2766
-9.24004
-9.2124
-9.19034
-9.16903
-9.15227
-9.13797
-9.12467
-9.11816
-9.11787
-9.11924
-9.11957
-9.12023
-9.12083
-9.12074
-9.12115
-9.1218
-9.12219
-9.12293
-9.12339
-9.12233
-9.11943
-9.11586
-9.11154
-9.10606
-9.09983
-9.09254
-9.08474
-9.07868
-9.07524
-9.0737
-28.0602
-28.1287
-28.2469
-28.3659
-28.38
-28.0869
-27.1651
-25.2987
-22.6512
-20.2512
-18.1934
-16.3053
-14.8625
-13.7103
-12.6506
-11.8313
-11.1475
-10.5119
-10.1268
-9.95618
-9.84555
-9.71096
-9.6169
-9.54363
-9.4614
-9.41454
-9.38851
-9.36231
-9.36178
-9.37107
-9.35577
-9.30715
-9.26524
-9.23075
-9.19466
-9.17108
-9.15362
-9.13384
-9.12011
-9.10827
-9.09493
-9.09073
-9.09452
-9.09926
-9.10119
-9.10361
-9.10578
-9.10646
-9.10799
-9.10976
-9.11085
-9.11265
-9.11429
-9.11387
-9.11088
-9.10747
-9.10332
-9.09758
-9.09114
-9.08315
-9.07393
-9.06711
-9.0636
-9.06217
-28.371
-28.4702
-28.6535
-28.8779
-29.0383
-28.906
-28.0621
-25.997
-22.8166
-20.1815
-18.0331
-15.9705
-14.5229
-13.409
-12.2946
-11.5016
-10.841
-10.1447
-9.78617
-9.69899
-9.65026
-9.52313
-9.45495
-9.40758
-9.32612
-9.29658
-9.28996
-9.26883
-9.28644
-9.31917
-9.3145
-9.25701
-9.21648
-9.1869
-9.14917
-9.13041
-9.11861
-9.09905
-9.08883
-9.07985
-9.0649
-9.06307
-9.07182
-9.08034
-9.08331
-9.08753
-9.09138
-9.09245
-9.09513
-9.0981
-9.09967
-9.10262
-9.10567
-9.10593
-9.10252
-9.09932
-9.09545
-9.08936
-9.08282
-9.07412
-9.06297
-9.05533
-9.0519
-9.05071
-28.6546
-28.7852
-29.0369
-29.3766
-29.7084
-29.7877
-29.0878
-26.8179
-22.9004
-20.0479
-17.8674
-15.5659
-14.152
-13.1204
-11.9099
-11.1679
-10.5524
-9.74702
-9.42295
-9.44748
-9.47398
-9.33526
-9.29704
-9.28191
-9.18947
-9.18042
-9.19748
-9.17393
-9.21212
-9.27447
-9.28208
-9.20656
-9.16814
-9.14588
-9.10287
-9.09037
-9.08597
-9.06431
-9.05854
-9.05328
-9.03416
-9.03495
-9.04992
-9.06279
-9.06582
-9.07198
-9.07778
-9.07863
-9.08258
-9.08694
-9.08857
-9.09279
-9.09759
-9.09863
-9.0943
-9.09141
-9.08802
-9.08133
-9.07495
-9.06562
-9.05177
-9.04329
-9.04016
-9.03939
-28.9094
-29.0712
-29.3924
-29.8546
-30.3813
-30.7292
-30.2663
-27.8095
-22.8476
-19.8356
-17.7234
-15.0675
-13.749
-12.8663
-11.4832
-10.8326
-10.2997
-9.30619
-9.0316
-9.20645
-9.32586
-9.14289
-9.14296
-9.1712
-9.04818
-9.06588
-9.11393
-9.07528
-9.13787
-9.23844
-9.26133
-9.15353
-9.11972
-9.10905
-9.0546
-9.05087
-9.05674
-9.02891
-9.02933
-9.02941
-9.00209
-9.00609
-9.02906
-9.04706
-9.04854
-9.05698
-9.06521
-9.06484
-9.07035
-9.07643
-9.07745
-9.08315
-9.09016
-9.09214
-9.08607
-9.08373
-9.08116
-9.07344
-9.06762
-9.05788
-9.04019
-9.03095
-9.02846
-9.02831
-29.1344
-29.3263
-29.7162
-30.3044
-31.0456
-31.7233
-31.6229
-29.045
-22.5742
-19.5291
-17.6472
-14.4375
-13.3134
-12.6801
-10.9911
-10.4983
-10.1104
-8.80208
-8.60551
-8.98207
-9.21866
-8.93791
-8.99225
-9.08248
-8.89685
-8.95272
-9.04378
-8.96923
-9.06237
-9.21277
-9.25633
-9.09424
-9.07062
-9.07869
-9.00249
-9.01185
-9.03249
-8.99169
-9.00129
-9.00957
-8.96769
-8.97617
-9.00954
-9.03376
-9.03106
-9.04252
-9.05403
-9.05084
-9.05844
-9.0668
-9.06614
-9.07363
-9.08349
-9.08672
-9.07763
-9.07627
-9.07503
-9.06553
-9.06089
-9.05125
-9.02796
-9.01824
-9.01687
-9.01755
-29.3292
-29.5494
-30.005
-30.7187
-31.688
-32.7566
-33.1811
-30.6344
-21.9546
-19.1135
-17.7124
-13.6166
-12.8448
-12.6121
-10.3953
-10.1673
-10.0253
-8.20341
-8.13762
-8.78198
-9.17019
-8.70679
-8.84426
-9.02635
-8.72677
-8.84068
-8.99388
-8.85016
-8.98406
-9.19934
-9.27298
-9.02296
-9.02023
-9.05834
-8.9436
-8.97324
-9.01561
-8.95072
-8.9745
-8.99573
-8.92941
-8.94482
-8.9917
-9.02374
-9.01277
-9.02857
-9.04475
-9.0362
-9.04685
-9.05843
-9.05436
-9.06417
-9.07769
-9.08271
-9.06864
-9.06901
-9.06993
-9.05735
-9.05487
-9.04624
-9.01472
-9.00511
-9.00547
-9.0072
-29.4943
-29.7401
-30.2564
-31.0903
-32.2932
-33.8074
-34.9577
-32.7419
-20.8034
-18.5774
-18.0318
-12.5131
-12.3447
-12.7365
-9.63511
-9.84245
-10.1044
-7.46259
-7.62168
-8.61506
-9.20529
-8.42826
-8.69835
-9.01865
-8.52448
-8.72967
-8.97446
-8.70962
-8.90127
-9.20005
-9.31984
-8.93107
-8.96802
-9.0534
-8.87336
-8.935
-9.00963
-8.90296
-8.94904
-8.99076
-8.88488
-8.91172
-8.97598
-9.01819
-8.99262
-9.0151
-9.03816
-9.02028
-9.03559
-9.05182
-9.04167
-9.05466
-9.07286
-9.0806
-9.05857
-9.06191
-9.06624
-9.04846
-9.04959
-9.04354
-8.99985
-8.9915
-8.99436
-8.99733
-29.6305
-29.8986
-30.4687
-31.4132
-32.8447
-34.8452
-36.954
-35.6091
-18.8524
-17.9163
-18.7717
-10.9892
-11.8169
-13.1609
-8.61852
-9.5268
-10.4341
-6.50873
-7.0546
-8.4907
-9.35855
-8.07022
-8.5543
-9.08247
-8.26975
-8.6199
-9.00038
-8.53516
-8.81257
-9.21639
-9.40911
-8.80586
-8.91372
-9.07178
-8.78495
-8.89718
-9.01967
-8.84383
-8.92496
-8.99883
-8.83057
-8.87665
-8.96277
-9.01872
-8.96904
-9.00207
-9.03533
-9.00204
-9.02463
-9.0477
-9.0274
-9.04501
-9.06907
-9.0811
-9.04661
-9.05494
-9.06455
-9.03821
-9.04507
-9.04417
-8.98243
-8.97738
-8.98364
-8.98799
-29.7391
-30.0258
-30.6415
-31.6829
-33.3267
-35.8299
-39.1427
-39.5855
-15.7199
-17.1392
-20.1702
-8.84234
-11.2701
-14.0378
-7.20995
-9.22483
-11.136
-5.23832
-6.44016
-8.41735
-9.67778
-7.5859
-8.41284
-9.25074
-7.93295
-8.51233
-9.09274
-8.30874
-8.71742
-9.24893
-9.55815
-8.62907
-8.85761
-9.12484
-8.66832
-8.86004
-9.05304
-8.76658
-8.90239
-9.0258
-8.76133
-8.83975
-8.95243
-9.02756
-8.93974
-8.98945
-9.03783
-8.98
-9.01398
-9.04711
-9.01059
-9.03513
-9.06628
-9.08516
-9.03162
-9.04803
-9.06567
-9.02561
-9.04122
-9.04952
-8.9611
-8.9628
-8.97344
-8.97924
-29.8216
-30.1231
-30.7754
-31.8963
-33.7244
-36.7131
-41.4499
-45.1692
-10.8719
-16.2762
-22.5587
-5.78168
-10.7216
-15.579
-5.21529
-8.94343
-12.3792
-3.50319
-5.79469
-8.3999
-10.2286
-6.90891
-8.27653
-9.56942
-7.4718
-8.40916
-9.28086
-8.00471
-8.61715
-9.29636
-9.79129
-8.37508
-8.8009
-9.22844
-8.50916
-8.82425
-9.1199
-8.66163
-8.88155
-9.07985
-8.66983
-8.80174
-8.94515
-9.0478
-8.90149
-8.97731
-9.04783
-8.95203
-9.00369
-9.05147
-8.98988
-9.02503
-9.06436
-9.0942
-9.012
-9.04116
-9.07081
-9.00933
-9.03792
-9.06155
-8.93395
-8.94799
-8.96387
-8.97111
-29.8802
-30.1925
-30.8717
-32.0528
-34.0266
-37.4409
-43.729
-53.0564
-3.57547
-15.3898
-26.3874
-1.39969
-10.2016
-18.0727
-2.3637
-8.69365
-14.3929
-1.0955
-5.15504
-8.43565
-11.1005
-5.94739
-8.15092
-10.1013
-6.82737
-8.31468
-9.60456
-7.58729
-8.51648
-9.35416
-10.1422
-8.00864
-8.74632
-9.40421
-8.28752
-8.79114
-9.23423
-8.51569
-8.86292
-9.17215
-8.54587
-8.76441
-8.94079
-9.08369
-8.84989
-8.9659
-9.06839
-8.91525
-8.99396
-9.06283
-8.96343
-9.01493
-9.06302
-9.11019
-8.98562
-9.03441
-9.08168
-8.98757
-9.03494
-9.08304
-8.89838
-8.93348
-8.95516
-8.9637
-29.9169
-30.2362
-30.9328
-32.1534
-34.2269
-37.9607
-45.728
-64.2034
7.15944
-14.5895
-32.2544
4.8617
-9.76052
-21.9028
1.7139
-8.49321
-17.4832
2.27079
-4.58947
-8.50838
-12.4136
-4.57706
-8.04614
-10.9301
-5.91933
-8.2363
-10.1169
-7.00754
-8.42556
-9.41279
-10.657
-7.48223
-8.69893
-9.68109
-7.97628
-8.76317
-9.41479
-8.31083
-8.84743
-9.31779
-8.37555
-8.73124
-8.93873
-9.14114
-8.77911
-8.95583
-9.10374
-8.86589
-8.98526
-9.08402
-8.92891
-9.00548
-9.06183
-9.13604
-8.94978
-9.02805
-9.10075
-8.9581
-9.03207
-9.11786
-8.85093
-8.92039
-8.94765
-8.95724
-29.934
-30.2565
-30.9616
-32.2015
-34.3247
-38.231
-47.0461
-79.9002
22.6463
-14.05
-40.9368
13.7501
-9.47647
-27.5708
7.50958
-8.36942
-22.0503
6.98204
-4.21143
-8.57978
-14.3279
-2.63276
-7.97846
-12.1655
-4.64014
-8.1856
-10.8866
-6.19927
-8.36238
-9.4548
-11.397
-6.73257
-8.66657
-10.0965
-7.5389
-8.7439
-9.68587
-8.0229
-8.83628
-9.53625
-8.13987
-8.70767
-8.93705
-9.22769
-8.68118
-8.94775
-9.15913
-8.79861
-8.97805
-9.11848
-8.88287
-8.99751
-9.05967
-9.17531
-8.90063
-9.02224
-9.13101
-8.91774
-9.02863
-9.17088
-8.78668
-8.91013
-8.94142
-8.9516
)
;

boundaryField
{
    left
    {
        type            calculated;
        value           nonuniform List<scalar> 
32
(
-22.0413
-22.1046
-22.2249
-22.3956
-22.6111
-22.8662
-23.1562
-23.4766
-23.8231
-24.1911
-24.5763
-24.9742
-25.38
-25.7892
-26.197
-26.5988
-26.9901
-27.3666
-27.7244
-28.0602
-28.371
-28.6546
-28.9094
-29.1344
-29.3292
-29.4943
-29.6305
-29.7391
-29.8216
-29.8802
-29.9169
-29.934
)
;
    }
    right
    {
        type            calculated;
        value           nonuniform List<scalar> 
32
(
-9.23087
-9.2291
-9.22575
-9.22103
-9.21513
-9.20821
-9.20042
-9.19188
-9.18273
-9.17304
-9.16293
-9.15246
-9.14169
-9.1307
-9.11952
-9.10819
-9.09676
-9.08525
-9.0737
-9.06217
-9.05071
-9.03939
-9.02831
-9.01755
-9.0072
-8.99733
-8.98799
-8.97924
-8.97111
-8.9637
-8.95724
-8.9516
)
;
    }
    interface
    {
        type            calculated;
        value           nonuniform List<scalar> 
64
(
-29.9378
-30.2612
-30.9683
-32.2129
-34.3483
-38.2996
-47.4741
-89.0705
31.7644
-13.8719
-46.0913
18.9577
-9.38554
-30.9351
10.907
-8.3308
-24.7597
9.72925
-4.08677
-8.60867
-15.458
-1.49362
-7.95635
-12.9003
-3.8924
-8.1689
-11.3455
-5.72851
-8.34052
-9.46886
-11.832
-6.29289
-8.65531
-10.3441
-7.28344
-8.73695
-9.84743
-7.85469
-8.83192
-9.66639
-8.00293
-8.69909
-8.93595
-9.27927
-8.62425
-8.94427
-9.19254
-8.7597
-8.97484
-9.13947
-8.85643
-8.99399
-9.05813
-9.19878
-8.87214
-9.01945
-9.14933
-8.89434
-9.02662
-9.20258
-8.74961
-8.90589
-8.93858
-8.94893
)
;
    }
    bottom
    {
        type            calculated;
        value           nonuniform List<scalar> 
64
(
-22.0248
-21.9465
-21.7908
-21.56
-21.2573
-20.8874
-20.4566
-19.9725
-19.4438
-18.8804
-18.2926
-17.6908
-17.085
-16.4844
-15.897
-15.3297
-14.7877
-14.2752
-13.7949
-13.3482
-12.9358
-12.5573
-12.2118
-11.8977
-11.6133
-11.3566
-11.1254
-10.9176
-10.7312
-10.564
-10.4143
-10.2803
-10.1605
-10.0533
-9.95748
-9.87195
-9.79565
-9.72766
-9.66715
-9.61337
-9.56565
-9.52335
-9.48591
-9.45282
-9.4236
-9.39781
-9.37507
-9.35502
-9.33733
-9.32172
-9.30793
-9.29576
-9.285
-9.27549
-9.26712
-9.25976
-9.25333
-9.24778
-9.24306
-9.23914
-9.23602
-9.23368
-9.23211
-9.23133
)
;
    }
    defaultFaces
    {
        type            empty;
    }
}


// ************************************************************************* //
