/*--------------------------------*- C++ -*----------------------------------*\
| =========                 |                                                 |
| \\      /  F ield         | OpenFOAM: The Open Source CFD Toolbox           |
|  \\    /   O peration     | Version:  5.x                                   |
|   \\  /    A nd           | Web:      www.OpenFOAM.org                      |
|    \\/     M anipulation  |                                                 |
\*---------------------------------------------------------------------------*/
FoamFile
{
    version     2.0;
    format      ascii;
    class       volScalarField;
    location    "2.1";
    object      T;
}
// * * * * * * * * * * * * * * * * * * * * * * * * * * * * * * * * * * * * * //

dimensions      [0 0 0 1 0 0 0];

internalField   nonuniform List<scalar> 
2048
(
9.84177
9.84233
9.84345
9.84511
9.84728
9.84994
9.85303
9.85651
9.86031
9.86436
9.86858
9.8729
9.87726
9.88157
9.88579
9.88987
9.89376
9.89744
9.90089
9.9041
9.90707
9.90978
9.91227
9.91452
9.91657
9.91841
9.92007
9.92156
9.9229
9.92411
9.92518
9.92614
9.927
9.92777
9.92846
9.92908
9.92963
9.93011
9.93055
9.93093
9.93128
9.93158
9.93185
9.93209
9.9323
9.93248
9.93265
9.93279
9.93292
9.93303
9.93313
9.93322
9.93329
9.93336
9.93342
9.93348
9.93352
9.93356
9.9336
9.93362
9.93365
9.93366
9.93367
9.93368
9.53176
9.53343
9.53675
9.54167
9.54813
9.55602
9.56522
9.57555
9.58684
9.59887
9.61141
9.62425
9.63717
9.64998
9.66249
9.67457
9.68611
9.69701
9.70722
9.71671
9.72547
9.7335
9.74083
9.74749
9.75352
9.75896
9.76386
9.76826
9.77221
9.77575
9.77891
9.78175
9.78429
9.78656
9.78859
9.7904
9.79201
9.79345
9.79473
9.79587
9.79688
9.79777
9.79857
9.79927
9.79988
9.80043
9.80091
9.80133
9.80171
9.80204
9.80233
9.80259
9.80282
9.80302
9.80319
9.80335
9.80349
9.8036
9.8037
9.80379
9.80385
9.8039
9.80394
9.80395
9.23405
9.2368
9.24225
9.25035
9.26098
9.27398
9.28913
9.30617
9.32477
9.3446
9.36527
9.38642
9.40769
9.42874
9.4493
9.46912
9.48803
9.50588
9.52258
9.53808
9.55238
9.56548
9.57742
9.58826
9.59807
9.60691
9.61487
9.62202
9.62843
9.63417
9.63932
9.64392
9.64804
9.65172
9.65501
9.65795
9.66057
9.6629
9.66498
9.66683
9.66847
9.66992
9.6712
9.67234
9.67334
9.67422
9.675
9.67569
9.67629
9.67683
9.6773
9.67772
9.67809
9.67841
9.6787
9.67895
9.67917
9.67936
9.67953
9.67966
9.67977
9.67985
9.67991
9.67993
8.94748
8.95127
8.95882
8.97003
8.98476
9.00279
9.02382
9.04749
9.07334
9.10088
9.12959
9.15893
9.1884
9.21754
9.24595
9.27332
9.29937
9.32392
9.34686
9.36813
9.3877
9.40562
9.42194
9.43673
9.4501
9.46215
9.47299
9.48271
9.49143
9.49924
9.50623
9.51248
9.51808
9.52308
9.52755
9.53154
9.5351
9.53828
9.5411
9.54361
9.54583
9.5478
9.54954
9.55108
9.55244
9.55364
9.55469
9.55562
9.55644
9.55717
9.55781
9.55837
9.55887
9.55932
9.55971
9.56005
9.56035
9.56061
9.56083
9.56102
9.56117
9.56128
9.56135
9.56139
8.67104
8.67587
8.68548
8.69976
8.71855
8.74157
8.76847
8.79875
8.83185
8.8671
8.90382
8.94132
8.97893
9.01605
9.05219
9.08692
9.11992
9.15097
9.17992
9.2067
9.23131
9.2538
9.27425
9.29277
9.30948
9.32453
9.33804
9.35017
9.36103
9.37075
9.37946
9.38725
9.39421
9.40044
9.40601
9.41098
9.41541
9.41936
9.42287
9.42599
9.42876
9.43121
9.43338
9.43529
9.43697
9.43846
9.43977
9.44092
9.44194
9.44284
9.44363
9.44433
9.44495
9.4455
9.44599
9.44642
9.44679
9.44712
9.4474
9.44763
9.44782
9.44796
9.44805
9.4481
8.40392
8.40976
8.42139
8.43872
8.46154
8.48956
8.52233
8.55928
8.59968
8.64272
8.68751
8.73318
8.77892
8.82398
8.86774
8.9097
8.94949
8.98682
9.02156
9.05362
9.08302
9.10983
9.13417
9.15618
9.17601
9.19384
9.20985
9.22419
9.23703
9.24852
9.25881
9.26801
9.27624
9.28359
9.29017
9.29604
9.30128
9.30594
9.31009
9.31378
9.31704
9.31993
9.32248
9.32473
9.32672
9.32847
9.33001
9.33137
9.33256
9.33362
9.33455
9.33537
9.33611
9.33675
9.33733
9.33783
9.33828
9.33867
9.339
9.33928
9.3395
9.33967
9.33978
9.33984
8.1454
8.15224
8.16587
8.1862
8.21304
8.24607
8.28477
8.32848
8.3763
8.42724
8.48021
8.53414
8.58804
8.64102
8.69234
8.74142
8.78783
8.83126
8.87157
8.90867
8.94262
8.97351
9.00149
9.02675
9.04948
9.06989
9.08818
9.10456
9.11921
9.13232
9.14405
9.15454
9.16393
9.17232
9.17982
9.18652
9.19249
9.19781
9.20254
9.20674
9.21046
9.21375
9.21665
9.21921
9.22146
9.22345
9.2252
9.22674
9.22809
9.22929
9.23035
9.23128
9.23211
9.23285
9.23351
9.23409
9.2346
9.23504
9.23542
9.23574
9.236
9.2362
9.23633
9.23639
7.8949
7.9027
7.91829
7.94159
7.97243
8.01049
8.05521
8.10579
8.1612
8.22022
8.28153
8.34385
8.40598
8.46688
8.52572
8.58182
8.63471
8.68406
8.72972
8.77164
8.80988
8.8446
8.87598
8.90424
8.92964
8.95242
8.9728
8.99104
9.00735
9.02192
9.03496
9.04662
9.05706
9.06639
9.07473
9.08218
9.08883
9.09474
9.1
9.10466
9.1088
9.11245
9.11566
9.1185
9.121
9.12319
9.12513
9.12683
9.12833
9.12965
9.13082
9.13185
9.13277
9.13359
9.13432
9.13496
9.13553
9.13603
9.13646
9.13682
9.13712
9.13734
9.13749
9.13756
7.65191
7.66065
7.67814
7.70436
7.73917
7.78228
7.8331
7.89073
7.95394
8.02126
8.09112
8.16198
8.23244
8.30131
8.36763
8.43066
8.48988
8.54497
8.59576
8.64225
8.68455
8.72284
8.75737
8.78841
8.81626
8.84118
8.86347
8.88339
8.90118
8.91708
8.9313
8.94402
8.9554
8.96559
8.97469
8.98282
8.99007
8.99653
9.00226
9.00735
9.01185
9.01582
9.01932
9.0224
9.02511
9.0275
9.02959
9.03143
9.03306
9.03449
9.03576
9.03688
9.03788
9.03877
9.03956
9.04027
9.04089
9.04144
9.04192
9.04232
9.04265
9.04289
9.04306
9.04314
7.41603
7.42567
7.44499
7.47404
7.51278
7.56095
7.61798
7.68284
7.7541
7.83
7.90865
7.98825
8.06717
8.14405
8.21781
8.28768
8.35309
8.41373
8.46944
8.52027
8.56636
8.60797
8.6454
8.67899
8.70906
8.73593
8.75993
8.78135
8.80048
8.81756
8.83283
8.8465
8.85873
8.86968
8.87947
8.88822
8.89601
8.90295
8.90912
8.91458
8.91941
8.92367
8.92742
8.93072
8.93361
8.93616
8.93839
8.94036
8.94209
8.94362
8.94497
8.94617
8.94724
8.94819
8.94904
8.9498
8.95048
8.95108
8.9516
8.95204
8.9524
8.95267
8.95286
8.95295
7.18692
7.19739
7.21844
7.25022
7.29281
7.34605
7.40938
7.4817
7.5613
7.6461
7.73384
7.8224
7.90991
7.99484
8.07603
8.15263
8.22409
8.29009
8.3505
8.4054
8.45503
8.49971
8.5398
8.57569
8.60777
8.6364
8.66192
8.68468
8.70498
8.72311
8.73932
8.75382
8.76682
8.77845
8.78886
8.79815
8.80644
8.81382
8.82036
8.82616
8.83128
8.8358
8.83976
8.84325
8.8463
8.84899
8.85134
8.85341
8.85524
8.85685
8.85827
8.85953
8.86066
8.86167
8.86258
8.86339
8.86411
8.86476
8.86532
8.8658
8.86619
8.86649
8.86669
8.86679
6.96429
6.97554
6.99819
7.03255
7.07887
7.13714
7.20689
7.2869
7.3752
7.46927
7.56643
7.66419
7.76042
7.85344
7.94202
8.02526
8.10262
8.17377
8.23865
8.29739
8.35029
8.39777
8.44028
8.47825
8.51212
8.54231
8.56918
8.59312
8.61445
8.63349
8.65051
8.66577
8.67944
8.69168
8.70264
8.71243
8.72115
8.72891
8.7358
8.74189
8.74727
8.75201
8.75616
8.7598
8.763
8.76579
8.76825
8.77041
8.77231
8.77399
8.77547
8.77679
8.77797
8.77903
8.77998
8.78084
8.78161
8.78229
8.7829
8.78341
8.78384
8.78416
8.78438
8.78449
6.74794
6.75986
6.78397
6.82072
6.8706
6.93384
7.0101
7.09808
7.19547
7.29923
7.40617
7.51339
7.61849
7.71964
7.81555
7.90532
7.9884
8.06452
8.13363
8.19594
8.25185
8.30188
8.34655
8.38638
8.42185
8.4534
8.48146
8.50641
8.52863
8.54846
8.5662
8.5821
8.59637
8.60916
8.6206
8.63083
8.63994
8.64805
8.65523
8.66159
8.66719
8.67211
8.67643
8.6802
8.68351
8.6864
8.68894
8.69117
8.69314
8.69487
8.6964
8.69777
8.69899
8.70009
8.70108
8.70198
8.70279
8.70352
8.70416
8.70472
8.70517
8.70553
8.70576
8.70588
6.5377
6.55019
6.57555
6.61446
6.66768
6.73577
6.81861
6.91487
7.02183
7.13576
7.25287
7.36981
7.4839
7.5932
7.69637
7.79254
7.88119
7.96207
8.03517
8.10078
8.15942
8.21174
8.25834
8.29981
8.33667
8.36942
8.39849
8.42431
8.44729
8.46778
8.48613
8.50261
8.5174
8.53067
8.54255
8.55316
8.56262
8.57103
8.57848
8.58506
8.59086
8.59594
8.60039
8.60427
8.60767
8.61064
8.61325
8.61553
8.61755
8.61932
8.6209
8.6223
8.62355
8.62469
8.62572
8.62665
8.62751
8.62827
8.62896
8.62955
8.63004
8.63042
8.63068
8.6308
6.33342
6.34637
6.37276
6.41352
6.46979
6.54256
6.63204
6.73693
6.85399
6.97863
7.10633
7.23327
7.35647
7.4739
7.58425
7.68667
7.7807
7.86614
7.94299
8.01161
8.07271
8.12705
8.17535
8.21825
8.25633
8.2901
8.32004
8.34659
8.37019
8.39124
8.4101
8.42707
8.44233
8.45602
8.46829
8.47925
8.489
8.49767
8.50535
8.51213
8.5181
8.52332
8.52787
8.53184
8.53531
8.53834
8.54099
8.54333
8.54538
8.54719
8.54879
8.55022
8.5515
8.55267
8.55373
8.5547
8.55559
8.55639
8.55711
8.55774
8.55827
8.55868
8.55896
8.5591
6.13504
6.1483
6.17546
6.21772
6.27667
6.35387
6.45001
6.5639
6.69171
6.82767
6.9664
7.10361
7.236
7.36151
7.47893
7.58745
7.68667
7.77647
7.85681
7.92816
7.99142
8.04753
8.0973
8.14144
8.18056
8.2152
8.24585
8.27301
8.29711
8.3186
8.3379
8.35529
8.37095
8.38503
8.39764
8.40889
8.41891
8.42781
8.43569
8.44264
8.44874
8.45407
8.45871
8.46274
8.46626
8.46934
8.47203
8.47439
8.47647
8.4783
8.47993
8.48138
8.48268
8.48387
8.48496
8.48596
8.48688
8.48773
8.48849
8.48916
8.48972
8.49016
8.49046
8.49061
5.94247
5.95589
5.98352
6.02688
6.08807
6.16934
6.2721
6.39545
6.53478
6.68273
6.83294
6.98069
7.12231
7.25581
7.38017
7.4946
7.59883
7.69279
7.77638
7.85015
7.91527
7.9729
8.02393
8.06911
8.10912
8.14448
8.17572
8.20335
8.22784
8.24966
8.2693
8.28706
8.30309
8.3175
8.33041
8.34193
8.35217
8.36127
8.36932
8.37642
8.38264
8.38806
8.39275
8.39683
8.40038
8.40348
8.4062
8.40858
8.41068
8.41253
8.41417
8.41563
8.41694
8.41815
8.41926
8.42029
8.42125
8.42213
8.42293
8.42364
8.42425
8.42472
8.42504
8.4252
5.75567
5.7691
5.79688
5.84087
5.90376
5.98864
6.09793
6.23122
6.38302
6.5437
6.70582
6.86437
7.01523
7.15656
7.28772
7.40785
7.51688
7.61486
7.70144
7.77729
7.84395
7.90288
7.95495
8.001
8.04175
8.0777
8.1094
8.1374
8.16215
8.18421
8.20412
8.2222
8.23855
8.25326
8.26644
8.27819
8.28863
8.2979
8.30609
8.3133
8.31963
8.32512
8.32985
8.33395
8.33752
8.34063
8.34336
8.34576
8.34786
8.34972
8.35136
8.35283
8.35415
8.35537
8.35651
8.35756
8.35855
8.35946
8.3603
8.36106
8.36171
8.36221
8.36255
8.36272
5.57463
5.58789
5.61548
5.65959
5.72353
5.81144
5.92704
6.07083
6.23631
6.41051
6.58492
6.75454
6.91456
7.06352
7.20132
7.32693
7.44055
7.54242
7.63174
7.70931
7.77719
7.83719
7.89011
7.93686
7.97824
8.01465
8.04668
8.07495
8.09987
8.12205
8.14215
8.16054
8.17718
8.19215
8.20558
8.21752
8.22811
8.23753
8.24584
8.25316
8.25957
8.26511
8.26986
8.27396
8.27753
8.28065
8.28338
8.28578
8.28788
8.28973
8.29138
8.29284
8.29417
8.2954
8.29655
8.29763
8.29865
8.2996
8.30048
8.30128
8.30197
8.30252
8.30288
8.30306
5.39932
5.41225
5.43929
5.48297
5.54724
5.63742
5.75897
5.91389
6.09459
6.28313
6.47011
6.65112
6.82015
6.97641
7.12075
7.25156
7.36952
7.47525
7.56707
7.64593
7.71469
7.77558
7.82917
7.87645
7.91836
7.95512
7.98737
8.01583
8.04081
8.06299
8.08322
8.10189
8.1188
8.134
8.14765
8.15976
8.17048
8.18002
8.18843
8.19583
8.20233
8.2079
8.21264
8.21672
8.22028
8.22339
8.22611
8.22851
8.23061
8.23245
8.23409
8.23555
8.23687
8.2381
8.23927
8.24038
8.24142
8.2424
8.24332
8.24417
8.24492
8.2455
8.24589
8.24608
5.22973
5.24216
5.2683
5.31096
5.37475
5.46628
5.59321
5.75993
5.95789
6.16156
6.36125
6.55406
6.73181
6.89494
7.04577
7.18145
7.30347
7.41315
7.50721
7.58688
7.65614
7.71779
7.77187
7.81952
7.86191
7.8989
7.93126
7.95985
7.98478
8.00685
8.02714
8.04612
8.06327
8.07867
8.09254
8.10477
8.11558
8.12524
8.13372
8.14119
8.14777
8.15336
8.15806
8.1621
8.16565
8.16874
8.17144
8.17383
8.17591
8.17775
8.17938
8.18082
8.18213
8.18336
8.18455
8.18567
8.18674
8.18776
8.18872
8.18962
8.19043
8.19105
8.19146
8.19166
5.06585
5.07761
5.10251
5.14356
5.20597
5.29773
5.42921
5.60839
5.82639
6.04587
6.25811
6.46334
6.64938
6.81875
6.97617
7.11631
7.24204
7.35595
7.45198
7.53188
7.60122
7.6636
7.718
7.76584
7.80871
7.84582
7.87815
7.90686
7.93163
7.95344
7.97372
7.99307
8.01045
8.026
8.0401
8.05242
8.06328
8.07305
8.08158
8.08909
8.09576
8.10136
8.10599
8.10997
8.1135
8.11656
8.11924
8.12162
8.12369
8.1255
8.12712
8.12854
8.12983
8.13106
8.13227
8.13341
8.1345
8.13555
8.13655
8.1375
8.13838
8.13905
8.13948
8.13968
4.90766
4.91861
4.94194
4.98079
5.04088
5.13154
5.26637
5.45858
5.70047
5.93618
6.16037
6.37902
6.57268
6.74742
6.91183
7.05586
7.18481
7.30353
7.40124
7.48065
7.54962
7.61283
7.66734
7.71517
7.7586
7.79569
7.82785
7.85671
7.88121
7.90259
7.92279
7.94262
7.96021
7.97585
7.99021
8.00258
8.01344
8.02334
8.03189
8.03941
8.04621
8.05179
8.05632
8.06022
8.06374
8.06675
8.06939
8.07177
8.07381
8.0756
8.07721
8.07861
8.07986
8.08108
8.08232
8.08347
8.08458
8.08567
8.08671
8.08771
8.08867
8.08939
8.08984
8.09004
4.75512
4.76514
4.7866
4.8227
4.87947
4.96752
5.10402
5.30958
5.58077
5.83262
6.06757
6.3013
6.50154
6.68041
6.85268
6.99982
7.1313
7.25585
7.35485
7.43289
7.50096
7.5653
7.6197
7.66724
7.71143
7.74835
7.78017
7.80929
7.83339
7.85412
7.87417
7.89467
7.91241
7.92808
7.94276
7.95512
7.96592
7.97599
7.98452
7.99203
7.99899
8.00454
8.00893
8.01272
8.01623
8.0192
8.02179
8.02418
8.02618
8.02793
8.02954
8.0309
8.03211
8.03332
8.0346
8.03576
8.03688
8.03802
8.03908
8.04013
8.0412
8.04197
8.04243
8.04263
4.6082
4.61718
4.63651
4.66933
4.72182
4.80556
4.94147
5.16017
5.46837
5.73539
5.97897
6.23053
6.43577
6.61706
6.79879
6.94791
7.08087
7.21298
7.31273
7.3883
7.45484
7.52092
7.57489
7.6218
7.66712
7.70365
7.73488
7.7645
7.78805
7.80788
7.82764
7.84913
7.86696
7.88252
7.89766
7.90994
7.92059
7.93091
7.93936
7.9468
7.95402
7.95951
7.96371
7.96736
7.9709
7.9738
7.97632
7.97873
7.9807
7.98239
7.98401
7.98533
7.98648
7.98767
7.989
7.99017
7.99129
7.99248
7.99356
7.99467
7.99587
7.99669
7.99715
7.99735
4.46683
4.4747
4.49168
4.52078
4.56805
4.64564
4.77803
5.00864
5.36487
5.64468
5.89348
6.16735
6.37522
6.55644
6.75042
6.89984
7.03275
7.17514
7.2748
7.34654
7.41081
7.47968
7.53275
7.57851
7.62563
7.66144
7.69176
7.72228
7.74507
7.7637
7.78302
7.80596
7.82374
7.83903
7.85484
7.86691
7.8773
7.888
7.8963
7.9036
7.91121
7.91661
7.92054
7.92402
7.92764
7.93045
7.93288
7.93535
7.93725
7.93889
7.94054
7.9418
7.94288
7.94404
7.94545
7.94661
7.94772
7.94898
7.95007
7.95121
7.95259
7.95345
7.9539
7.95409
4.33096
4.33764
4.35212
4.37712
4.41832
4.48788
4.61307
4.85265
5.27266
5.5607
5.80952
6.11278
6.31968
6.49736
6.70813
6.85535
6.98591
7.14275
7.24103
7.3073
7.36832
7.44167
7.49311
7.53702
7.58697
7.62158
7.65052
7.68261
7.70437
7.7214
7.74004
7.76516
7.78265
7.79742
7.81424
7.82594
7.8359
7.84722
7.85523
7.86228
7.8705
7.87574
7.87933
7.88258
7.88637
7.88906
7.89136
7.89394
7.89576
7.89731
7.89902
7.90022
7.9012
7.90231
7.90385
7.90499
7.90607
7.90743
7.9085
7.90966
7.91127
7.91217
7.9126
7.91277
4.2005
4.20596
4.21782
4.23844
4.27286
4.33253
4.44607
4.68889
5.19516
5.48356
5.72484
6.06839
6.26894
6.4382
6.67284
6.81418
6.939
7.11653
7.21133
7.27021
7.32671
7.4071
7.45584
7.49688
7.55126
7.58394
7.61086
7.64554
7.66585
7.68085
7.69845
7.72679
7.74361
7.75749
7.77586
7.78693
7.79622
7.8085
7.81607
7.82271
7.83183
7.83682
7.83997
7.84295
7.84701
7.84953
7.85166
7.85443
7.85613
7.85756
7.85939
7.8605
7.86136
7.86241
7.86413
7.86522
7.86624
7.86774
7.86876
7.86991
7.87184
7.87275
7.87315
7.8733
4.07534
4.07956
4.08875
4.1048
4.1319
4.17999
4.27682
4.51282
5.13717
5.41329
5.63631
6.03653
6.22275
6.3768
6.646
6.77603
6.89027
7.09758
7.18561
7.23494
7.28518
7.37641
7.42078
7.45753
7.51874
7.5484
7.57238
7.61117
7.62943
7.64191
7.6579
7.69097
7.70651
7.71899
7.73972
7.74978
7.75809
7.77185
7.77871
7.7847
7.79518
7.79975
7.80238
7.80499
7.80952
7.81178
7.81367
7.81675
7.81828
7.81954
7.82157
7.82255
7.82327
7.82422
7.82622
7.82722
7.82814
7.82984
7.83078
7.83187
7.83424
7.83513
7.83546
7.83559
3.95538
3.95836
3.96486
3.97627
3.99569
4.03083
4.10557
4.31821
5.10526
5.34969
5.53969
6.02053
6.18076
6.31032
6.62975
6.74064
6.83739
7.08755
7.16364
7.20117
7.2427
7.35024
7.38779
7.41826
7.4898
7.51481
7.53459
7.57971
7.59501
7.60444
7.61799
7.65792
7.67126
7.68165
7.7059
7.7144
7.72127
7.73729
7.74306
7.74808
7.76055
7.76446
7.76645
7.76858
7.77384
7.77574
7.77729
7.78084
7.78212
7.78316
7.78549
7.78631
7.78685
7.78766
7.79005
7.7909
7.79168
7.79368
7.79447
7.79543
7.7984
7.7992
7.79947
7.79956
3.84048
3.84224
3.84609
3.85287
3.86446
3.88574
3.93329
4.09659
5.1083
5.29225
5.42931
6.02507
6.14252
6.23501
6.62712
6.70768
6.77735
7.08872
7.14503
7.16864
7.19801
7.32956
7.3567
7.37819
7.46501
7.48303
7.49692
7.55149
7.56248
7.56838
7.57822
7.62798
7.63776
7.64509
7.67455
7.68068
7.68551
7.7049
7.70904
7.71262
7.72799
7.73086
7.7321
7.73359
7.73995
7.74131
7.7424
7.74667
7.74758
7.7483
7.75111
7.75169
7.75203
7.75261
7.75558
7.7562
7.75676
7.7592
7.75976
7.76048
7.76429
7.7649
7.76507
7.76513
3.73051
3.73109
3.73236
3.73459
3.73843
3.74553
3.762
3.83671
5.158
5.23997
5.29784
6.05646
6.10737
6.14607
6.64223
6.67678
6.70629
7.10428
7.1291
7.13722
7.14952
7.3157
7.32731
7.33619
7.44521
7.4529
7.4586
7.52698
7.53167
7.5337
7.53794
7.60163
7.60587
7.60891
7.64591
7.64852
7.65052
7.6748
7.67656
7.67806
7.69758
7.69883
7.69926
7.69987
7.70784
7.70842
7.70886
7.7142
7.71458
7.71488
7.71837
7.71862
7.71873
7.71899
7.72278
7.72304
7.72327
7.72634
7.72658
7.7269
7.73187
7.73215
7.73221
7.73223
)
;

boundaryField
{
    left
    {
        type            zeroGradient;
    }
    right
    {
        type            zeroGradient;
    }
    interface
    {
        type            fixedValue;
        value           nonuniform List<scalar> 
64
(
3.67674
3.67674
3.67674
3.67674
3.67674
3.67674
3.67674
3.67674
5.21505
5.21505
5.21505
6.09051
6.09051
6.09051
6.66182
6.66182
6.66182
7.12176
7.12176
7.12176
7.12176
7.31302
7.31302
7.31302
7.43822
7.43822
7.43822
7.51669
7.51669
7.51669
7.51669
7.59033
7.59033
7.59033
7.63283
7.63283
7.63283
7.6607
7.6607
7.6607
7.68321
7.68321
7.68321
7.68321
7.69235
7.69235
7.69235
7.69846
7.69846
7.69846
7.70247
7.70247
7.70247
7.70247
7.70684
7.70684
7.70684
7.71037
7.71037
7.71037
7.71615
7.71615
7.71615
7.71615
)
;
    }
    bottom
    {
        type            fixedValue;
        value           uniform 10;
    }
    defaultFaces
    {
        type            empty;
    }
}


// ************************************************************************* //
