/*--------------------------------*- C++ -*----------------------------------*\
| =========                 |                                                 |
| \\      /  F ield         | OpenFOAM: The Open Source CFD Toolbox           |
|  \\    /   O peration     | Version:  5.x                                   |
|   \\  /    A nd           | Web:      www.OpenFOAM.org                      |
|    \\/     M anipulation  |                                                 |
\*---------------------------------------------------------------------------*/
FoamFile
{
    version     2.0;
    format      ascii;
    class       volScalarField;
    location    "6.1";
    object      gradTx;
}
// * * * * * * * * * * * * * * * * * * * * * * * * * * * * * * * * * * * * * //

dimensions      [0 -1 0 1 0 0 0];

internalField   nonuniform List<scalar> 
2048
(
0.0220259
0.0658308
0.108873
0.150576
0.190284
0.22727
0.260777
0.290078
0.314555
0.333758
0.34746
0.355668
0.358611
0.356708
0.350517
0.340688
0.327909
0.312874
0.296242
0.278617
0.260525
0.242408
0.224619
0.207426
0.191024
0.175538
0.161041
0.147559
0.135082
0.123573
0.112975
0.10322
0.0942331
0.0859424
0.0782811
0.071191
0.064623
0.0585373
0.0529018
0.0476916
0.0428863
0.0384691
0.0344249
0.0307388
0.0273949
0.0243758
0.0216619
0.0192318
0.0170626
0.0151299
0.0134088
0.0118739
0.0105002
0.00926307
0.00813951
0.00710807
0.00614954
0.00524719
0.00438688
0.00355707
0.0027486
0.00195442
0.00116925
0.000389183
0.0653188
0.195244
0.322966
0.446794
0.564781
0.674749
0.774404
0.861541
0.93427
0.991229
1.03173
1.0558
1.06416
1.05807
1.03923
1.0096
0.971254
0.92626
0.876594
0.824053
0.770203
0.716351
0.663539
0.612555
0.56396
0.518121
0.475241
0.435392
0.398538
0.364562
0.33329
0.304511
0.278003
0.253548
0.230948
0.210028
0.190644
0.17268
0.156041
0.140654
0.126462
0.113417
0.101473
0.0905891
0.0807181
0.0718088
0.0638035
0.0566386
0.0502458
0.044553
0.0394859
0.0349691
0.030928
0.02729
0.0239862
0.0209529
0.018133
0.0154771
0.0129434
0.0104978
0.00811357
0.00577014
0.00345225
0.00114904
0.107256
0.320666
0.530641
0.734476
0.928968
1.11046
1.27504
1.41891
1.53881
1.6324
1.6985
1.73721
1.74977
1.73841
1.706
1.65586
1.59149
1.51636
1.43374
1.34663
1.25759
1.16878
1.08188
0.998161
0.918504
0.843485
0.77341
0.708374
0.648297
0.592969
0.542084
0.495282
0.452184
0.412424
0.375668
0.341633
0.310083
0.280828
0.253722
0.228649
0.205517
0.184253
0.164788
0.147056
0.130982
0.116484
0.103466
0.0918252
0.081448
0.0722157
0.0640058
0.056694
0.0501572
0.0442753
0.0389347
0.0340302
0.029468
0.0251668
0.0210585
0.0170881
0.0132125
0.00939927
0.00562429
0.00187191
0.14812
0.442978
0.733481
1.01604
1.28622
1.53881
1.7681
1.96848
2.13512
2.26453
2.35506
2.4069
2.42196
2.40354
2.35586
2.2837
2.19205
2.08582
1.96964
1.84768
1.72352
1.60011
1.47974
1.36409
1.25434
1.1512
1.05506
0.96599
0.883851
0.808316
0.738926
0.675152
0.616443
0.562274
0.51218
0.465766
0.422711
0.382763
0.345727
0.311453
0.279825
0.250747
0.224137
0.199906
0.177959
0.15818
0.140442
0.124599
0.110493
0.097961
0.0868314
0.0769321
0.0680916
0.0601427
0.0529269
0.0462981
0.0401259
0.0342984
0.0287225
0.0233235
0.0180443
0.0128425
0.0076865
0.00255829
0.188067
0.562696
0.932478
1.29311
1.63898
1.96316
2.25789
2.51537
2.72888
2.89363
3.00738
3.07056
3.08594
3.0581
2.99279
2.89642
2.77557
2.63668
2.48576
2.3282
2.1686
2.01065
1.85721
1.7103
1.5713
1.44104
1.31992
1.20796
1.10493
1.01036
0.923611
0.843955
0.770649
0.702998
0.640398
0.582347
0.528451
0.478401
0.431964
0.388964
0.34927
0.312775
0.279385
0.249002
0.221509
0.196764
0.174602
0.154839
0.137273
0.121692
0.10788
0.0956146
0.0846768
0.0748516
0.0659351
0.0577396
0.0500988
0.0428706
0.0359382
0.0292093
0.0226147
0.0161047
0.0096423
0.00320939
0.227136
0.679983
1.12806
1.56661
1.98886
2.386
2.74779
3.06379
3.32488
3.5247
3.66042
3.73285
3.74588
3.7057
3.61983
3.4965
3.34401
3.1704
2.98315
2.7889
2.59326
2.40065
2.21439
2.03679
1.86935
1.71293
1.56789
1.43419
1.31146
1.19905
1.09612
1.00171
0.914843
0.83465
0.760379
0.691431
0.627344
0.567769
0.512443
0.461176
0.413828
0.370294
0.330479
0.29428
0.261564
0.232165
0.205881
0.182486
0.161732
0.143363
0.127112
0.112711
0.0998919
0.0883905
0.0779562
0.0683588
0.0593958
0.0508955
0.0427191
0.0347586
0.026935
0.0191947
0.0114971
0.00382706
0.265247
0.794663
1.32014
1.83677
2.33672
2.80904
3.24049
3.61726
3.92723
4.16208
4.31838
4.39759
4.40512
4.34913
4.23928
4.08576
3.89876
3.688
3.4625
3.2302
2.99774
2.77023
2.55137
2.34364
2.14855
1.96692
1.79902
1.64472
1.50349
1.37448
1.25659
1.14857
1.04921
0.957416
0.872301
0.793177
0.71953
0.650983
0.587259
0.528159
0.473549
0.423332
0.377428
0.335736
0.298115
0.26437
0.234264
0.207525
0.18386
0.162964
0.144523
0.128223
0.113743
0.100772
0.0890075
0.0781769
0.06804
0.0583967
0.0490875
0.039991
0.0310212
0.0221241
0.0132579
0.00441357
0.302211
0.906233
1.50809
2.10319
2.68272
3.23335
3.7381
4.17883
4.53957
4.80957
4.98486
5.06792
5.06625
4.99049
4.85275
4.66545
4.44074
4.1901
3.92417
3.65229
3.38214
3.11947
2.86824
2.63096
2.40903
2.20316
2.01348
1.83974
1.68122
1.53687
1.40526
1.28483
1.17404
1.07159
0.976436
0.887828
0.805222
0.728229
0.656568
0.590044
0.528534
0.471966
0.420287
0.373412
0.331192
0.293407
0.259778
0.229983
0.20368
0.180518
0.160138
0.142174
0.126259
0.112026
0.0991227
0.0872288
0.076066
0.0654067
0.0550724
0.0449312
0.0348929
0.0249067
0.0149329
0.00497152
0.33773
1.01388
1.69082
2.36483
3.02638
3.65939
4.24226
4.75122
5.16526
5.47065
5.66299
5.74641
5.73124
5.63122
5.46131
5.23635
4.97048
4.67702
4.36828
4.05516
3.74642
3.44838
3.1651
2.89892
2.65103
2.4219
2.21153
2.01949
1.84493
1.68652
1.5425
1.41087
1.28974
1.17754
1.07313
0.975688
0.884687
0.799741
0.720577
0.647007
0.57893
0.516313
0.459148
0.407381
0.360861
0.319337
0.282479
0.249912
0.221244
0.196074
0.173998
0.154607
0.137481
0.122198
0.108348
0.0955599
0.083517
0.0719645
0.0607079
0.0496073
0.0385716
0.0275577
0.0165305
0.00550356
0.371412
1.1165
1.86675
2.62007
3.36656
4.08709
4.75426
5.33697
5.80753
6.14854
6.3555
6.43511
6.40146
6.27219
6.06553
5.79882
5.48822
5.14882
4.79476
4.43864
4.09045
3.75694
3.44206
3.14777
2.87486
2.6235
2.3935
2.18431
1.99495
1.82382
1.66872
1.52715
1.39676
1.27572
1.16277
1.05711
0.958231
0.865791
0.779526
0.69926
0.624916
0.556517
0.494127
0.437743
0.387213
0.342245
0.302451
0.267393
0.236624
0.209697
0.186166
0.165579
0.147466
0.131343
0.116739
0.103224
0.0904422
0.078114
0.0660313
0.0540496
0.0420803
0.0300925
0.0180595
0.00601226
0.402777
1.21273
2.03386
2.86667
3.70146
4.51581
5.27512
5.93857
6.46962
6.84635
7.06484
7.13558
7.07773
6.91376
6.66554
6.35294
5.99398
5.60542
5.20334
4.80243
4.41401
4.04513
3.69929
3.37784
3.08095
2.80839
2.55981
2.3346
2.13167
1.94918
1.78443
1.63422
1.49565
1.36662
1.2458
1.13246
1.02618
0.926672
0.833682
0.747041
0.666694
0.592741
0.525357
0.464613
0.410356
0.362238
0.319797
0.282523
0.24991
0.221467
0.196712
0.175154
0.156276
0.139526
0.124357
0.11028
0.0968953
0.0839019
0.0710818
0.0582899
0.0454425
0.0325267
0.0195278
0.00649988
0.431277
1.30097
2.18971
3.10181
4.02864
4.94439
5.80562
6.55864
7.15496
7.56717
7.79313
7.84891
7.76032
7.55578
7.26108
6.8985
6.48763
6.04662
5.59367
5.14608
4.71682
4.31292
3.93704
3.58954
3.26979
2.97709
2.71096
2.47079
2.2555
2.06308
1.89017
1.73267
1.587
1.45077
1.32268
1.20213
1.08888
0.982689
0.883326
0.790606
0.704484
0.62516
0.552977
0.488115
0.430411
0.379436
0.334636
0.295414
0.261203
0.231473
0.205714
0.183403
0.163979
0.146815
0.131273
0.116791
0.102932
0.0893762
0.0758992
0.0623598
0.0486813
0.0348747
0.0209425
0.00696812
0.456314
1.37946
2.33153
3.32211
4.34494
5.37109
6.34639
7.20006
7.86726
8.31407
8.5422
8.57568
8.44893
8.19759
7.85157
7.43514
6.96902
6.47222
5.96528
5.46905
4.99854
4.56035
4.15562
3.78341
3.44202
3.1302
2.84748
2.59333
2.36685
2.16596
1.98652
1.82317
1.67143
1.52873
1.39387
1.26651
1.14665
1.03415
0.928747
0.830227
0.738521
0.653955
0.577127
0.508375
0.447507
0.393973
0.3471
0.306192
0.270615
0.239812
0.213253
0.190398
0.170644
0.153281
0.137556
0.122823
0.10861
0.0945846
0.0805224
0.0662907
0.0518192
0.0371495
0.0223089
0.00741792
0.477273
1.44634
2.45626
3.52366
4.64648
5.79352
6.89792
7.86616
8.61074
9.09014
9.31357
9.31599
9.14266
8.83812
8.43616
7.96236
7.43805
6.88209
6.31761
5.77061
5.25882
4.78749
4.35545
3.9601
3.59836
3.2684
2.96994
2.7027
2.4661
2.25827
2.07412
1.90644
1.74963
1.60107
1.45983
1.32595
1.19981
1.08135
0.970239
0.866191
0.769053
0.679304
0.597936
0.52552
0.461782
0.405991
0.357331
0.314989
0.278264
0.246585
0.219414
0.196207
0.176339
0.159
0.143281
0.128442
0.113986
0.0995737
0.0849887
0.0701129
0.054878
0.0393622
0.0236298
0.00784916
0.493547
1.49974
2.56067
3.70206
4.92856
6.20849
7.46053
8.56096
9.39029
9.89847
10.1084
10.0694
9.83997
9.47584
9.01377
8.47959
7.89475
7.27624
6.65001
6.04989
5.49725
4.99454
4.53705
4.12036
3.73964
3.39241
3.07899
2.79936
2.55358
2.34044
2.15362
1.98326
1.82227
1.66835
1.521
1.38079
1.24867
1.1246
1.00809
0.898797
0.79634
0.701377
0.615522
0.539671
0.473377
0.415638
0.36548
0.321948
0.284272
0.251895
0.224279
0.200897
0.18113
0.164047
0.148528
0.133715
0.119113
0.104387
0.0893324
0.0738555
0.0578788
0.0415213
0.0249051
0.00826032
0.504579
1.53785
2.6415
3.85253
5.18568
6.61191
8.0344
9.28949
10.2117
10.742
10.9272
10.8349
10.5387
10.1088
9.58317
8.98619
8.33944
7.65498
6.9617
6.30574
5.71345
5.18185
4.70107
4.26513
3.86684
3.503
3.17527
2.88381
2.62952
2.41279
2.22577
2.0545
1.89007
1.73115
1.57782
1.43132
1.2935
1.16417
1.04259
0.928361
0.820664
0.720333
0.629974
0.550944
0.482443
0.42307
0.371706
0.327218
0.288762
0.255846
0.227929
0.204525
0.185075
0.168501
0.153376
0.138705
0.124044
0.109067
0.0935837
0.0775466
0.0608426
0.0436325
0.0261305
0.00864816
0.509893
1.5591
2.69558
3.97001
5.41144
6.99849
8.61937
10.0582
11.0819
11.6232
11.7703
11.6109
11.2357
10.7349
10.1431
9.4814
8.77283
8.01908
7.2517
6.53664
5.90707
5.34999
4.84822
4.39542
3.98103
3.60095
3.25952
2.95652
2.69403
2.47555
2.29137
2.12115
1.95372
1.78999
1.63069
1.47777
1.33454
1.20033
1.07399
0.955224
0.842332
0.736306
0.641345
0.559448
0.489138
0.428444
0.376171
0.330951
0.291857
0.25854
0.230442
0.207137
0.188224
0.172445
0.157912
0.143472
0.128827
0.113648
0.0977671
0.0812136
0.063792
0.0456977
0.0272964
0.0090072
0.509132
1.56216
2.72002
4.04931
5.59854
7.36147
9.21478
10.8753
12.0095
12.5439
12.6372
12.3958
11.9271
11.3515
10.6924
9.96422
9.19622
8.36994
7.51867
6.74054
6.07789
5.49985
4.97926
4.51242
4.08344
3.68699
3.33248
3.01805
2.74701
2.52879
2.35134
2.18435
2.01386
1.84539
1.67998
1.52027
1.372
1.23336
1.10252
0.979752
0.861697
0.749392
0.649635
0.565289
0.493638
0.431918
0.379046
0.333309
0.293673
0.260084
0.231895
0.208765
0.190614
0.175968
0.16223
0.14807
0.133505
0.118166
0.101899
0.0848838
0.0667528
0.0477146
0.0283865
0.00932935
0.50209
1.54614
2.71241
4.08537
5.73882
7.69223
9.81902
11.7518
13.0049
13.5041
13.5266
13.1874
12.6076
11.9563
11.2301
10.4331
9.61163
8.70999
7.76075
6.91464
6.22594
5.63276
5.09485
4.61747
4.17549
3.76168
3.395
3.06904
2.78814
2.57234
2.40679
2.24542
2.071
1.89781
1.7261
1.55885
1.40608
1.26354
1.12834
1.00236
0.879177
0.759639
0.654776
0.56858
0.496146
0.433639
0.380505
0.334459
0.294315
0.260582
0.232368
0.209418
0.192265
0.17917
0.166433
0.152539
0.138116
0.122653
0.105985
0.0885862
0.0697569
0.0496755
0.0293765
0.00960338
0.488731
1.51062
2.67095
4.07347
5.82337
7.97985
10.4289
12.7024
14.0815
14.5011
14.437
13.9842
13.2701
12.547
11.7561
10.8856
10.0221
9.04304
7.9752
7.05511
6.35173
5.75073
5.19537
4.71208
4.25886
3.82532
3.44807
3.11035
2.81671
2.60567
2.45914
2.30598
2.12545
1.94771
1.76946
1.59336
1.43699
1.29118
1.15152
1.02351
0.895291
0.767013
0.656606
0.569451
0.496903
0.433734
0.380727
0.334583
0.293867
0.260144
0.23195
0.209083
0.19317
0.182171
0.170643
0.156897
0.142697
0.12714
0.110013
0.0923528
0.0728469
0.051565
0.0302317
0.00981462
0.469201
1.45572
2.5947
4.00956
5.84276
8.21065
11.0387
13.7466
15.2561
15.5277
15.3664
14.7856
13.905
13.1221
12.271
11.3172
10.4322
9.37494
8.15793
7.15666
6.45655
5.85665
5.28061
4.79801
4.33562
3.87768
3.49284
3.1432
2.83154
2.6278
2.51021
2.36804
2.17711
1.9955
1.81059
1.62338
1.46494
1.31669
1.17192
1.04378
0.910711
0.771363
0.65484
0.568076
0.496208
0.432288
0.3799
0.333879
0.292381
0.258887
0.230743
0.207708
0.193292
0.185118
0.175002
0.161132
0.147282
0.131666
0.113947
0.0962219
0.0760821
0.0533576
0.0309059
0.00994481
0.44383
1.38216
2.48365
3.89058
5.78737
8.36773
11.6384
14.9109
16.5505
16.5692
16.3131
15.5934
14.4987
13.6816
12.7777
11.7205
10.8481
9.71442
8.30284
7.21214
6.54292
5.95464
5.3492
4.87739
4.4084
3.91763
3.5308
3.16936
2.8308
2.63706
2.56244
2.43412
2.22521
2.04167
1.85025
1.64811
1.49027
1.34061
1.18912
1.06384
0.926325
0.772368
0.649037
0.564701
0.494445
0.42931
0.378229
0.332579
0.289852
0.256944
0.228882
0.2052
0.192545
0.188203
0.179689
0.165176
0.15191
0.136283
0.117712
0.100243
0.0795458
0.0550118
0.0313391
0.00997225
0.413118
1.29118
2.33886
3.71485
5.64799
8.43064
12.2117
16.2308
17.9932
17.5999
17.277
16.4134
15.0312
14.2275
13.2815
12.0827
11.2789
10.0742
8.40084
7.21189
6.61529
6.05051
5.3979
4.95294
4.48076
3.9427
3.56388
3.19148
2.81179
2.63084
2.61919
2.50751
2.26801
2.08682
1.88954
1.66616
1.51346
1.36372
1.20227
1.08457
0.943335
0.769457
0.638558
0.559693
0.492111
0.424685
0.375944
0.330966
0.286191
0.254471
0.226548
0.201405
0.190778
0.191679
0.184927
0.168885
0.156634
0.141066
0.121175
0.104482
0.0833567
0.0564636
0.0314565
0.00987258
0.377712
1.18458
2.16244
3.48237
5.4165
8.37535
12.7324
17.7538
19.6221
18.5775
18.2612
17.2574
15.4737
14.766
13.7926
12.3834
11.7371
10.4724
8.43856
7.14318
6.68081
6.15236
5.42045
5.02835
4.55757
3.94827
3.59478
3.21349
2.77064
2.60533
2.68502
2.59248
2.3022
2.13186
1.93012
1.67526
1.5353
1.38716
1.20979
1.10712
0.963375
0.761706
0.62252
0.553599
0.489861
0.418101
0.373323
0.329399
0.281181
0.251666
0.223995
0.196095
0.187756
0.195885
0.191011
0.171992
0.161535
0.146138
0.124121
0.109035
0.0876816
0.0576142
0.0311683
0.00962007
0.33837
1.06457
1.95759
3.19511
5.08679
8.17465
13.1601
19.5436
21.4878
19.4352
19.2751
18.1471
15.7829
15.3091
14.3274
12.5904
12.2408
10.9346
8.39654
6.98939
6.75045
6.27126
5.4061
5.10878
4.64567
3.92655
3.62728
3.24103
2.70196
2.55503
2.76619
2.69463
2.32221
2.17825
1.97454
1.67181
1.55705
1.41268
1.20907
1.13303
0.988662
0.747688
0.599756
0.547223
0.488559
0.408952
0.370725
0.328354
0.274412
0.248786
0.221577
0.188948
0.183123
0.201282
0.198322
0.174056
0.166744
0.151684
0.12621
0.114035
0.0927525
0.0583144
0.0303711
0.00918983
0.295923
0.933683
1.72841
2.85715
4.65585
7.79924
13.434
21.6843
23.6583
20.0725
20.3383
19.1173
15.8959
15.8775
14.9118
12.6541
12.8149
11.4956
8.24703
6.72939
6.84028
6.42229
5.33747
5.20173
4.75466
3.86519
3.66677
3.28215
2.59836
2.47231
2.87115
2.82141
2.31925
2.2284
2.0266
1.65034
1.58071
1.4428
1.19606
1.16442
1.02218
0.725289
0.568764
0.541718
0.489338
0.396203
0.368641
0.328473
0.265201
0.246183
0.21979
0.179521
0.176374
0.208482
0.207373
0.174389
0.172474
0.157991
0.126927
0.119684
0.0988868
0.0583419
0.0289521
0.0085607
0.251233
0.794643
1.47973
2.47473
4.12488
7.21999
13.4646
24.2863
26.2255
20.3413
21.4864
20.2219
15.7208
16.5049
15.5849
12.5012
13.4947
12.2027
7.95101
6.33677
6.97295
6.62567
5.18793
5.31814
4.89801
3.74541
3.72099
3.34792
2.44999
2.3468
3.01118
2.98266
2.28006
2.28617
2.0918
1.6027
1.60938
1.48123
1.1646
1.20421
1.06791
0.691458
0.527679
0.538693
0.493686
0.378213
0.367762
0.330629
0.252481
0.244344
0.219308
0.167222
0.166802
0.218303
0.218846
0.17196
0.179065
0.165486
0.125511
0.126269
0.106511
0.0573713
0.0267974
0.00771889
0.205153
0.650229
1.21688
2.05606
3.50032
6.41143
13.1238
27.4927
29.3129
20.0301
22.7791
21.5399
15.126
17.2425
16.4035
12.0254
14.3296
13.1181
7.45471
5.77938
7.17932
6.90832
4.91816
5.47396
5.09431
3.53965
3.80105
3.45324
2.24385
2.16472
3.20111
3.19135
2.18529
2.35762
2.17798
1.51706
1.6477
1.53321
1.10572
1.25648
1.13106
0.641914
0.474261
0.540329
0.50354
0.352519
0.369078
0.336007
0.234657
0.24395
0.221033
0.151283
0.153451
0.231813
0.233651
0.165271
0.187041
0.174782
0.120869
0.134213
0.116189
0.054935
0.0238051
0.00666192
0.158488
0.503141
0.94539
1.61095
2.79462
5.35721
12.2318
31.4866
33.0861
18.843
24.3102
23.1829
13.9266
18.1664
17.448
11.0763
15.388
14.3226
6.68528
5.01901
7.50021
7.30571
4.47197
5.69213
5.36889
3.20864
3.92264
3.61766
1.96317
1.90813
3.46008
3.46458
2.00754
2.45198
2.29597
1.37664
1.70247
1.60606
1.00666
1.32689
1.21833
0.570767
0.405899
0.549498
0.521409
0.315559
0.374005
0.346195
0.209432
0.245952
0.226146
0.130723
0.13505
0.250389
0.252998
0.152209
0.197182
0.186749
0.111462
0.144116
0.128649
0.0503744
0.0199063
0.00540251
0.111971
0.355888
0.670685
1.15027
2.02657
4.05757
10.5419
36.4995
37.7654
16.3752
26.2201
25.3035
11.8672
19.3852
18.829
9.44645
16.7636
15.9188
5.5458
4.0115
7.98796
7.86416
3.77121
6.00511
5.75567
2.69778
4.10781
3.86613
1.58663
1.55412
3.81234
3.82467
1.70901
2.58282
2.46042
1.15819
1.7834
1.70974
0.849762
1.42321
1.33823
0.470099
0.319674
0.569872
0.550513
0.262348
0.384547
0.363304
0.173596
0.251672
0.236146
0.104318
0.109947
0.275771
0.278488
0.129862
0.210626
0.202573
0.0951716
0.156829
0.144819
0.0427802
0.015093
0.00397143
0.0662384
0.21069
0.397812
0.685215
1.22072
2.53945
7.72192
42.8196
43.6407
12.0843
28.7118
28.1055
8.60238
21.0498
20.6953
6.85547
18.5836
18.0342
3.90973
2.70735
8.70787
8.64357
2.70996
6.45794
6.29916
1.93304
4.38701
4.22971
1.08765
1.07398
4.28805
4.30058
1.23872
2.76952
2.69061
0.830131
1.90399
1.85749
0.611107
1.55602
1.5013
0.329462
0.212452
0.606019
0.594963
0.186093
0.403496
0.390078
0.122772
0.262926
0.252897
0.0705688
0.0760385
0.310125
0.312217
0.0943111
0.228971
0.223844
0.0691449
0.173534
0.165853
0.0309224
0.00945765
0.00241843
0.0218198
0.0694279
0.131207
0.226468
0.40584
0.869296
3.3341
50.8011
51.0895
5.25703
32.0689
31.8532
3.67409
23.3653
23.2423
2.93236
21.0181
20.8246
1.61468
1.05305
9.73916
9.72072
1.14778
7.11182
7.05674
0.816179
4.80162
4.74614
0.433629
0.432366
4.92395
4.92949
0.529354
3.03907
3.01146
0.350531
2.08266
2.06662
0.259007
1.73954
1.7204
0.135342
0.0810551
0.663459
0.659957
0.0777681
0.434664
0.430032
0.0511358
0.282177
0.278655
0.027678
0.030688
0.35609
0.356905
0.0403823
0.254417
0.252637
0.0296111
0.195838
0.193165
0.0131707
0.00324204
0.000810007
)
;

boundaryField
{
    left
    {
        type            calculated;
        value           uniform 0;
    }
    right
    {
        type            calculated;
        value           uniform 0;
    }
    interface
    {
        type            calculated;
        value           nonuniform List<scalar> 
64
(
0.0218198
0.0694279
0.131207
0.226468
0.40584
0.869296
3.3341
50.8011
51.0895
5.25703
32.0689
31.8532
3.67409
23.3653
23.2423
2.93236
21.0181
20.8246
1.61468
1.05305
9.73916
9.72072
1.14778
7.11182
7.05674
0.816179
4.80162
4.74614
0.433629
0.432366
4.92395
4.92949
0.529354
3.03907
3.01146
0.350531
2.08266
2.06662
0.259007
1.73954
1.7204
0.135342
0.0810551
0.663459
0.659957
0.0777681
0.434664
0.430032
0.0511358
0.282177
0.278655
0.027678
0.030688
0.35609
0.356905
0.0403823
0.254417
0.252637
0.0296111
0.195838
0.193165
0.0131707
0.00324204
0.000810007
)
;
    }
    bottom
    {
        type            calculated;
        value           nonuniform List<scalar> 
64
(
0.0220259
0.0658308
0.108873
0.150576
0.190284
0.22727
0.260777
0.290078
0.314555
0.333758
0.34746
0.355668
0.358611
0.356708
0.350517
0.340688
0.327909
0.312874
0.296242
0.278617
0.260525
0.242408
0.224619
0.207426
0.191024
0.175538
0.161041
0.147559
0.135082
0.123573
0.112975
0.10322
0.0942331
0.0859424
0.0782811
0.071191
0.064623
0.0585373
0.0529018
0.0476916
0.0428863
0.0384691
0.0344249
0.0307388
0.0273949
0.0243758
0.0216619
0.0192318
0.0170626
0.0151299
0.0134088
0.0118739
0.0105002
0.00926307
0.00813951
0.00710807
0.00614954
0.00524719
0.00438688
0.00355707
0.0027486
0.00195442
0.00116925
0.000389183
)
;
    }
    defaultFaces
    {
        type            empty;
    }
}


// ************************************************************************* //
