/*--------------------------------*- C++ -*----------------------------------*\
| =========                 |                                                 |
| \\      /  F ield         | OpenFOAM: The Open Source CFD Toolbox           |
|  \\    /   O peration     | Version:  5.x                                   |
|   \\  /    A nd           | Web:      www.OpenFOAM.org                      |
|    \\/     M anipulation  |                                                 |
\*---------------------------------------------------------------------------*/
FoamFile
{
    version     2.0;
    format      ascii;
    class       volScalarField;
    location    "3.2";
    object      gradTy;
}
// * * * * * * * * * * * * * * * * * * * * * * * * * * * * * * * * * * * * * //

dimensions      [0 -1 0 1 0 0 0];

internalField   nonuniform List<scalar> 
2048
(
-20.9809
-20.891
-20.7122
-20.4467
-20.098
-19.6711
-19.1725
-18.6105
-17.9948
-17.3361
-16.646
-15.9361
-15.2177
-14.5016
-13.797
-13.112
-12.4533
-11.8259
-11.2335
-10.6783
-10.1614
-9.68296
-9.2422
-8.83782
-8.46803
-8.13076
-7.82377
-7.54473
-7.29135
-7.06139
-6.85274
-6.66347
-6.49178
-6.33608
-6.19492
-6.06701
-5.95121
-5.84646
-5.75184
-5.66647
-5.58958
-5.52042
-5.4583
-5.40259
-5.35268
-5.30802
-5.26807
-5.23236
-5.20045
-5.17195
-5.14651
-5.12381
-5.10358
-5.08558
-5.06964
-5.05558
-5.04329
-5.03267
-5.02365
-5.01618
-5.01023
-5.00578
-5.00282
-5.00134
-21.0536
-20.9628
-20.7822
-20.5139
-20.1611
-19.7289
-19.2237
-18.6539
-18.0294
-17.3614
-16.6618
-15.9427
-15.2158
-14.492
-13.7809
-13.0906
-12.4277
-11.7974
-11.2031
-10.647
-10.13
-9.65214
-9.21245
-8.80949
-8.44138
-8.10592
-7.80079
-7.52361
-7.27202
-7.04375
-6.83668
-6.64884
-6.47845
-6.3239
-6.18378
-6.0568
-5.94183
-5.83784
-5.74391
-5.65918
-5.58288
-5.51427
-5.45267
-5.39744
-5.34799
-5.30374
-5.26417
-5.22882
-5.19723
-5.16902
-5.14382
-5.12134
-5.10129
-5.08346
-5.06764
-5.05368
-5.04147
-5.0309
-5.02192
-5.01448
-5.00854
-5.0041
-5.00115
-4.99967
-21.1916
-21.0993
-20.9155
-20.6419
-20.2816
-19.8392
-19.3214
-18.7366
-18.0952
-17.4093
-16.6915
-15.9548
-15.2115
-14.4731
-13.7495
-13.0491
-12.3785
-11.7426
-11.1449
-10.5872
-10.0702
-9.59346
-9.15589
-8.75572
-8.39084
-8.05887
-7.75732
-7.48369
-7.23552
-7.01048
-6.80638
-6.62126
-6.45331
-6.30095
-6.16278
-6.03755
-5.92414
-5.82158
-5.72894
-5.64542
-5.57023
-5.50266
-5.44204
-5.38773
-5.33912
-5.29567
-5.25683
-5.22214
-5.19116
-5.16348
-5.13876
-5.11669
-5.09699
-5.07945
-5.06387
-5.0501
-5.03802
-5.02756
-5.01865
-5.01125
-5.00535
-5.00092
-4.99798
-4.9965
-21.3874
-21.2931
-21.1049
-20.8242
-20.4534
-19.9969
-19.461
-18.8546
-18.189
-17.4771
-16.7329
-15.9707
-15.2038
-14.4445
-13.7033
-12.9886
-12.3071
-11.6637
-11.0613
-10.5016
-9.9848
-9.50999
-9.07563
-8.6796
-8.31944
-7.99251
-7.69611
-7.42756
-7.18427
-6.96381
-6.76394
-6.58264
-6.41812
-6.26882
-6.13337
-6.01057
-5.89936
-5.79878
-5.70795
-5.6261
-5.55247
-5.48636
-5.42711
-5.37409
-5.32669
-5.28435
-5.24655
-5.2128
-5.18266
-5.15574
-5.13168
-5.11019
-5.09099
-5.07385
-5.0586
-5.04509
-5.03321
-5.02288
-5.01407
-5.00673
-5.00086
-4.99645
-4.99351
-4.99204
-21.6343
-21.5376
-21.3445
-21.0553
-20.6719
-20.1977
-19.6389
-19.0048
-18.3077
-17.5621
-16.7838
-15.9887
-15.1916
-14.4057
-13.6421
-12.9095
-12.2146
-11.562
-10.9543
-10.3925
-9.87632
-9.40434
-8.97438
-8.58385
-8.22986
-7.90945
-7.61966
-7.35759
-7.12051
-6.90585
-6.71128
-6.53476
-6.37451
-6.229
-6.09691
-5.97711
-5.86859
-5.77044
-5.68186
-5.60207
-5.53037
-5.46608
-5.40854
-5.35713
-5.31124
-5.2703
-5.23378
-5.2012
-5.17212
-5.14615
-5.12293
-5.10215
-5.08356
-5.06693
-5.05209
-5.03889
-5.02724
-5.01708
-5.00838
-5.0011
-4.99527
-4.99087
-4.98794
-4.98646
-21.9262
-21.8273
-21.629
-21.3309
-20.9332
-20.4385
-19.8525
-19.1848
-18.4492
-17.6622
-16.8422
-16.007
-15.1734
-14.3557
-13.5655
-12.812
-12.1016
-11.4386
-10.8251
-10.2615
-9.74682
-9.27876
-8.85452
-8.47088
-8.1245
-7.81204
-7.53023
-7.27595
-7.04627
-6.83849
-6.65018
-6.47927
-6.32397
-6.18284
-6.05462
-5.93827
-5.83284
-5.7375
-5.65149
-5.57409
-5.50463
-5.44245
-5.38691
-5.33738
-5.29326
-5.25396
-5.21896
-5.18776
-5.15991
-5.13504
-5.11279
-5.09286
-5.07498
-5.05894
-5.04456
-5.03172
-5.02033
-5.01035
-5.00175
-4.99454
-4.98874
-4.98435
-4.98141
-4.97994
-22.2575
-22.1568
-21.9539
-21.6469
-21.2343
-20.7169
-20.0997
-19.3928
-18.6115
-17.7754
-16.9058
-16.0236
-15.1475
-14.2931
-13.4729
-12.6958
-11.9684
-11.2942
-10.675
-10.1103
-9.59811
-9.1353
-8.7182
-8.34292
-8.00557
-7.70242
-7.42988
-7.1846
-6.96343
-6.7635
-6.58228
-6.41764
-6.26787
-6.13158
-6.00762
-5.89505
-5.79302
-5.70077
-5.61759
-5.54283
-5.47585
-5.41603
-5.36273
-5.31533
-5.27321
-5.23576
-5.20246
-5.1728
-5.14635
-5.12272
-5.10156
-5.08257
-5.06549
-5.05009
-5.03623
-5.02377
-5.01266
-5.00286
-4.99437
-4.98721
-4.98142
-4.97703
-4.97408
-4.9726
-22.6231
-22.5212
-22.3149
-22.0001
-21.5727
-21.0314
-20.3794
-19.6274
-18.7931
-17.8998
-16.9728
-16.0365
-15.1121
-14.2168
-13.3633
-12.5607
-11.815
-11.1295
-10.505
-9.94015
-9.43182
-8.9758
-8.56741
-8.20199
-7.87508
-7.58254
-7.32051
-7.08534
-6.87369
-6.68248
-6.50906
-6.35127
-6.20744
-6.07632
-5.9569
-5.84835
-5.74994
-5.66098
-5.58083
-5.5089
-5.4446
-5.38733
-5.33648
-5.29142
-5.25148
-5.21607
-5.18463
-5.15666
-5.13173
-5.10946
-5.08949
-5.07152
-5.0553
-5.04061
-5.02728
-5.01523
-5.0044
-4.99477
-4.98638
-4.97925
-4.97345
-4.96904
-4.96607
-4.96458
-23.0178
-22.9158
-22.708
-22.3875
-21.9467
-21.3808
-20.691
-19.8881
-18.9929
-18.0335
-17.0408
-16.0434
-15.0654
-14.1252
-13.2358
-12.4062
-11.6417
-10.9449
-10.3159
-9.75227
-9.24951
-8.80203
-8.40402
-8.04998
-7.73488
-7.4542
-7.2038
-6.9798
-6.77859
-6.59689
-6.43188
-6.28137
-6.14379
-6.01805
-5.90334
-5.79896
-5.70431
-5.61878
-5.5418
-5.47282
-5.41134
-5.35679
-5.30857
-5.26601
-5.22844
-5.19522
-5.16578
-5.13962
-5.11631
-5.09548
-5.07678
-5.05991
-5.04461
-5.03066
-5.0179
-5.00626
-4.99569
-4.98622
-4.9779
-4.97078
-4.96495
-4.9605
-4.9575
-4.95598
-23.4364
-23.336
-23.1294
-22.8065
-22.3549
-21.765
-21.0346
-20.1746
-19.2097
-18.1749
-17.1078
-16.0422
-15.0055
-14.017
-13.0898
-12.2321
-11.4485
-10.7409
-10.1085
-9.54786
-9.05265
-8.61568
-8.22982
-7.88868
-7.58669
-7.31903
-7.08132
-6.86944
-6.67955
-6.50808
-6.35199
-6.20907
-6.07791
-5.95765
-5.8477
-5.74758
-5.65676
-5.57473
-5.50099
-5.43506
-5.37649
-5.32478
-5.27934
-5.23946
-5.20441
-5.17351
-5.14618
-5.12193
-5.10032
-5.08101
-5.06364
-5.04793
-5.03359
-5.02041
-5.00823
-4.99699
-4.98668
-4.97734
-4.96905
-4.96191
-4.95602
-4.9515
-4.94844
-4.9469
-23.8739
-23.777
-23.5755
-23.2546
-22.7963
-22.1841
-21.411
-20.4872
-19.4427
-18.3219
-17.1712
-16.0305
-14.9303
-13.8908
-12.9244
-12.0381
-11.2355
-10.5178
-9.88364
-9.32803
-8.84273
-8.41841
-8.04652
-7.71977
-7.43211
-7.17851
-6.95444
-6.75558
-6.57782
-6.41725
-6.27052
-6.13538
-6.01067
-5.89586
-5.79066
-5.69478
-5.60783
-5.52933
-5.45886
-5.39601
-5.34041
-5.29164
-5.24911
-5.21206
-5.17966
-5.15121
-5.12608
-5.1038
-5.08396
-5.06622
-5.05024
-5.03574
-5.02241
-5.01001
-4.99841
-4.98755
-4.97747
-4.96823
-4.95994
-4.95273
-4.94674
-4.94213
-4.93901
-4.93743
-24.325
-24.2343
-24.0423
-23.7296
-23.2703
-22.6391
-21.8218
-20.8267
-19.6913
-18.4727
-17.2284
-16.0055
-14.8378
-13.7455
-12.7391
-11.8242
-11.003
-10.2762
-9.64193
-9.09394
-8.62123
-8.21189
-7.85581
-7.54486
-7.2726
-7.03398
-6.8244
-6.63938
-6.47455
-6.32552
-6.18851
-6.0612
-5.94283
-5.83334
-5.73277
-5.64108
-5.55798
-5.48301
-5.41581
-5.35603
-5.3034
-5.25764
-5.21816
-5.18408
-5.15447
-5.12855
-5.1057
-5.08544
-5.0674
-5.05127
-5.03673
-5.02347
-5.01118
-4.99959
-4.98855
-4.97806
-4.96817
-4.95899
-4.95066
-4.94334
-4.93721
-4.93247
-4.92925
-4.92765
-24.7845
-24.7028
-24.5261
-24.2291
-23.7766
-23.1316
-22.2693
-21.1947
-19.9547
-18.6247
-17.2765
-15.9646
-14.7261
-13.58
-12.5336
-11.5906
-10.7516
-10.0164
-9.38403
-8.84669
-8.38969
-7.99779
-7.65935
-7.36548
-7.10951
-6.88664
-6.6923
-6.52187
-6.37074
-6.23392
-6.10691
-5.98732
-5.87504
-5.77062
-5.67449
-5.58691
-5.50762
-5.43614
-5.37216
-5.3154
-5.26572
-5.22301
-5.18671
-5.15576
-5.12905
-5.10575
-5.08522
-5.067
-5.05079
-5.0363
-5.02323
-5.01126
-5.00005
-4.98927
-4.97878
-4.9686
-4.95887
-4.94971
-4.94129
-4.93381
-4.92748
-4.92258
-4.91926
-4.91761
-25.2471
-25.1777
-25.0229
-24.7506
-24.315
-23.664
-22.757
-21.5932
-20.232
-18.7753
-17.3124
-15.9048
-14.5932
-13.3934
-12.3078
-11.3378
-10.4817
-9.73879
-9.11048
-8.58744
-8.14974
-7.7778
-7.45873
-7.1831
-6.94406
-6.73752
-6.55908
-6.40389
-6.26727
-6.14339
-6.02662
-5.91445
-5.80784
-5.70814
-5.6162
-5.53261
-5.45709
-5.38905
-5.32822
-5.27439
-5.22755
-5.18792
-5.15496
-5.12732
-5.10363
-5.08301
-5.06482
-5.04864
-5.03426
-5.02142
-5.00984
-4.99921
-4.98912
-4.97916
-4.96917
-4.95928
-4.94966
-4.94047
-4.93191
-4.9242
-4.91762
-4.91251
-4.90907
-4.90739
-25.7075
-25.654
-25.5283
-25.2916
-24.8856
-24.2389
-23.2895
-22.0252
-20.5219
-18.9209
-17.3324
-15.8228
-14.4372
-13.1855
-12.0619
-11.0665
-10.1942
-9.44369
-8.82162
-8.31737
-7.90318
-7.55364
-7.25554
-6.9991
-6.77733
-6.58754
-6.42555
-6.28615
-6.1649
-6.05484
-5.94851
-5.8432
-5.74166
-5.64626
-5.55817
-5.47846
-5.40671
-5.34201
-5.28426
-5.23323
-5.18905
-5.15251
-5.12309
-5.09895
-5.07838
-5.06048
-5.04465
-5.03049
-5.01791
-5.00673
-4.99664
-4.9874
-4.97849
-4.96935
-4.95981
-4.95014
-4.94059
-4.93132
-4.92257
-4.91459
-4.90767
-4.90231
-4.89874
-4.89703
-26.1605
-26.1267
-26.0378
-25.8489
-25.488
-24.8602
-23.873
-22.4945
-20.8221
-19.0573
-17.3329
-15.7151
-14.2564
-12.9565
-11.7964
-10.7779
-9.89051
-9.13109
-8.51751
-8.03774
-7.65199
-7.32702
-7.05127
-6.81484
-6.61021
-6.43745
-6.2924
-6.16915
-6.06425
-5.96916
-5.87345
-5.77405
-5.6768
-5.58525
-5.50057
-5.42468
-5.35675
-5.29527
-5.24052
-5.19213
-5.15031
-5.11684
-5.09124
-5.07087
-5.05347
-5.03834
-5.02485
-5.01262
-5.00183
-4.9923
-4.9837
-4.9759
-4.96825
-4.95995
-4.95077
-4.94126
-4.93172
-4.92232
-4.91335
-4.90501
-4.89767
-4.89201
-4.88831
-4.88659
-26.6011
-26.5906
-26.5468
-26.4191
-26.1216
-25.5317
-24.5151
-23.0067
-21.1293
-19.1791
-17.3105
-15.5779
-14.0492
-12.7071
-11.512
-10.4735
-9.57234
-8.80064
-8.19775
-7.74993
-7.39854
-7.09957
-6.84733
-6.63166
-6.44342
-6.28783
-6.16028
-6.05322
-5.96578
-5.88724
-5.80236
-5.70736
-5.61345
-5.52533
-5.4435
-5.37143
-5.30749
-5.24901
-5.19722
-5.1513
-5.11136
-5.08094
-5.05956
-5.04326
-5.02907
-5.01669
-5.00554
-4.99513
-4.98607
-4.97819
-4.97106
-4.96477
-4.9585
-4.95103
-4.94209
-4.93266
-4.92312
-4.91351
-4.90428
-4.89554
-4.88764
-4.88163
-4.87782
-4.87612
-27.0247
-27.041
-27.0503
-26.998
-26.7853
-26.258
-25.2261
-23.569
-21.4375
-19.2797
-17.2622
-15.4065
-13.8143
-12.4396
-11.209
-10.1553
-9.24239
-8.45128
-7.86133
-7.45556
-7.14568
-6.87273
-6.64499
-6.45096
-6.2774
-6.13914
-6.02978
-5.93841
-5.86977
-5.81006
-5.73627
-5.64329
-5.55165
-5.46669
-5.38692
-5.31882
-5.2592
-5.20336
-5.15455
-5.11099
-5.07215
-5.04474
-5.02816
-5.01636
-5.00527
-4.99566
-4.98683
-4.97804
-4.97067
-4.96445
-4.95871
-4.95402
-4.94932
-4.94271
-4.9338
-4.92437
-4.9148
-4.90493
-4.89543
-4.88623
-4.8776
-4.87117
-4.86728
-4.86564
-27.4268
-27.473
-27.5429
-27.5806
-27.4768
-27.0435
-26.0185
-24.1922
-21.7373
-19.3507
-17.1869
-15.1952
-13.5504
-12.1575
-10.8873
-9.82549
-8.90473
-8.08089
-7.50638
-7.15664
-6.89706
-6.64756
-6.44533
-6.27435
-6.1122
-5.99164
-5.90166
-5.82445
-5.77628
-5.73868
-5.67643
-5.58171
-5.49127
-5.40959
-5.33063
-5.26691
-5.21225
-5.15836
-5.11273
-5.07149
-5.03251
-5.00808
-4.99718
-4.9904
-4.98216
-4.97533
-4.96885
-4.96135
-4.95566
-4.95114
-4.94663
-4.94367
-4.94079
-4.93507
-4.92588
-4.91638
-4.90682
-4.89657
-4.88682
-4.87713
-4.86753
-4.8606
-4.85673
-4.85522
-27.8038
-27.8824
-28.0194
-28.1612
-28.1926
-27.8923
-26.9081
-24.8914
-22.0131
-19.382
-17.0863
-14.936
-13.2564
-11.8674
-10.5452
-9.4867
-8.5656
-7.68559
-7.12986
-6.85577
-6.65745
-6.42436
-6.24915
-6.10388
-5.94731
-5.84548
-5.77692
-5.71063
-5.68505
-5.6744
-5.62444
-5.52205
-5.43202
-5.35444
-5.27422
-5.21568
-5.16713
-5.11388
-5.07191
-5.03325
-4.99212
-4.97072
-4.96679
-4.96574
-4.95975
-4.95574
-4.95174
-4.94501
-4.94103
-4.93833
-4.93474
-4.93366
-4.93303
-4.92826
-4.91827
-4.90866
-4.89921
-4.88842
-4.8785
-4.86832
-4.85738
-4.8499
-4.84616
-4.84489
-28.1525
-28.2652
-28.4745
-28.7333
-28.9274
-28.8071
-27.9141
-25.6895
-22.2402
-19.3616
-16.9679
-14.6174
-12.9314
-11.5796
-10.1784
-9.14186
-8.23478
-7.25875
-6.72734
-6.55646
-6.43334
-6.20216
-6.05695
-5.94243
-5.78133
-5.70062
-5.65717
-5.5956
-5.59551
-5.61873
-5.58251
-5.46308
-5.37342
-5.30201
-5.21694
-5.16511
-5.12458
-5.06958
-5.03229
-4.99696
-4.95046
-4.93227
-4.9372
-4.9428
-4.93794
-4.93692
-4.93569
-4.92888
-4.92676
-4.92612
-4.9229
-4.92395
-4.92613
-4.92243
-4.91085
-4.90117
-4.89205
-4.8804
-4.87048
-4.85991
-4.84707
-4.83899
-4.8356
-4.83471
-28.4705
-28.618
-28.9029
-29.2895
-29.6736
-29.7885
-29.0595
-26.6209
-22.3797
-19.2755
-16.8482
-14.2215
-12.5745
-11.3106
-9.77754
-8.79411
-7.92747
-6.78943
-6.29275
-6.26345
-6.23364
-5.97782
-5.86885
-5.79427
-5.6115
-5.55686
-5.54501
-5.4771
-5.50661
-5.57357
-5.55374
-5.40256
-5.31478
-5.25362
-5.15753
-5.11509
-5.08577
-5.0247
-4.99404
-4.96367
-4.90663
-4.89223
-4.9087
-4.92219
-4.91647
-4.91885
-4.92101
-4.91273
-4.91281
-4.91471
-4.91089
-4.9144
-4.92025
-4.91785
-4.90339
-4.89383
-4.88545
-4.87239
-4.86282
-4.85208
-4.83647
-4.82778
-4.82506
-4.82474
-28.756
-28.938
-29.2999
-29.8219
-30.4214
-30.8337
-30.3699
-27.7376
-22.3712
-19.1081
-16.758
-13.72
-12.1848
-11.0866
-9.32527
-8.44668
-7.66717
-6.26009
-5.81829
-5.98307
-6.0708
-5.74486
-5.68455
-5.66597
-5.43298
-5.41391
-5.44462
-5.35148
-5.41681
-5.5412
-5.54259
-5.33669
-5.25528
-5.21159
-5.0939
-5.06551
-5.05252
-4.97788
-4.95732
-4.93505
-4.85927
-4.84997
-4.88172
-4.90479
-4.89482
-4.90149
-4.90818
-4.89613
-4.89914
-4.90439
-4.8984
-4.90488
-4.91555
-4.91487
-4.89555
-4.88656
-4.87961
-4.8642
-4.85553
-4.84508
-4.82537
-4.81619
-4.81458
-4.81505
-29.008
-29.2234
-29.6611
-30.3223
-31.1583
-31.9346
-31.8727
-29.1189
-22.1228
-18.8429
-16.7496
-13.0682
-11.7617
-10.9479
-8.79167
-8.10288
-7.48965
-5.64316
-5.29471
-5.72356
-5.9623
-5.49167
-5.50344
-5.56768
-5.23771
-5.27139
-5.36264
-5.21314
-5.32408
-5.52428
-5.55558
-5.25941
-5.19395
-5.17975
-5.02274
-5.01623
-5.02766
-4.92683
-4.92231
-4.91369
-4.80627
-4.80472
-4.85679
-4.89183
-4.87211
-4.8848
-4.89794
-4.87844
-4.88571
-4.89571
-4.88491
-4.8952
-4.91227
-4.91406
-4.88677
-4.87928
-4.8749
-4.85549
-4.84866
-4.83933
-4.81344
-4.80411
-4.8042
-4.80576
-29.2262
-29.4729
-29.983
-30.7825
-31.8698
-33.0763
-33.5934
-30.8845
-21.4966
-18.4645
-16.907
-12.196
-11.305
-10.9552
-8.12781
-7.76602
-7.44858
-4.89616
-4.71214
-5.49514
-5.93269
-5.19909
-5.32464
-5.5148
-5.01287
-5.12895
-5.3093
-5.0535
-5.22597
-5.52578
-5.60225
-5.16133
-5.12983
-5.16412
-4.93886
-4.96713
-5.01553
-4.86785
-4.88916
-4.90349
-4.74441
-4.75573
-4.83465
-4.88507
-4.84693
-4.86869
-4.89148
-4.85862
-4.87249
-4.88949
-4.86972
-4.88514
-4.91064
-4.91625
-4.87622
-4.87189
-4.87186
-4.84576
-4.84227
-4.83546
-4.80022
-4.79146
-4.79404
-4.79696
-29.4111
-29.686
-30.263
-31.1949
-32.539
-34.2351
-35.55
-33.2127
-20.2897
-17.9605
-17.3584
-10.9962
-10.816
-11.1989
-7.25705
-7.43948
-7.62288
-3.95491
-4.06184
-5.30972
-6.01648
-4.83713
-5.14739
-5.53036
-4.73869
-4.98648
-5.29993
-4.85978
-5.11986
-5.54864
-5.69639
-5.02834
-5.06213
-5.17392
-4.83434
-4.91817
-5.02262
-4.79525
-4.85807
-4.91027
-4.66888
-4.7023
-4.81615
-4.88704
-4.81707
-4.85313
-4.89057
-4.83515
-4.85948
-4.887
-4.85177
-4.87448
-4.91093
-4.92264
-4.86266
-4.86435
-4.8714
-4.83423
-4.83641
-4.83441
-4.78498
-4.77819
-4.78422
-4.78881
-29.5636
-29.8632
-30.4995
-31.5532
-33.1484
-35.3779
-37.7435
-36.3664
-18.2084
-17.3261
-18.2934
-9.30746
-10.2985
-11.8102
-6.06343
-7.12701
-8.12648
-2.72414
-3.33927
-5.17985
-6.26178
-4.3607
-4.97144
-5.64801
-4.38551
-4.84439
-5.35687
-4.61321
-5.00352
-5.59524
-5.85787
-4.83974
-4.99047
-5.22275
-4.69731
-4.8695
-5.05842
-4.7004
-4.82925
-4.94241
-4.57256
-4.64408
-4.8022
-4.90123
-4.77922
-4.8381
-4.89779
-4.8057
-4.84673
-4.89008
-4.8295
-4.86306
-4.91337
-4.93502
-4.84426
-4.85664
-4.87479
-4.81974
-4.83115
-4.83751
-4.76664
-4.76435
-4.77493
-4.78141
-29.6852
-30.0054
-30.692
-31.8521
-33.6803
-36.4608
-40.1444
-40.7265
-14.8348
-16.5698
-19.9838
-6.8936
-9.76144
-12.9756
-4.37684
-6.83326
-9.12052
-1.06517
-2.54915
-5.11666
-6.73538
-3.7041
-4.79783
-5.91575
-3.90999
-4.70414
-5.51188
-4.28661
-4.87602
-5.66638
-6.11493
-4.56583
-4.91535
-5.3301
-4.51043
-4.8216
-5.13645
-4.57076
-4.80296
-5.01183
-4.44511
-4.58142
-4.79363
-4.93252
-4.72857
-4.82368
-4.91687
-4.76689
-4.83436
-4.90137
-4.80068
-4.8508
-4.91803
-4.95587
-4.81844
-4.84881
-4.88391
-4.80057
-4.82655
-4.84668
-4.74363
-4.7501
-4.76638
-4.77488
-29.7779
-30.1143
-30.8411
-32.0887
-34.1191
-37.431
-42.6716
-46.8358
-9.58486
-15.7217
-22.8085
-3.41639
-9.22177
-14.9553
-1.95443
-6.56465
-10.8286
1.22011
-1.71289
-5.12621
-7.52909
-2.77421
-4.62991
-6.4006
-3.25025
-4.56894
-5.80902
-3.84139
-4.73919
-5.75975
-6.50717
-4.16488
-4.83866
-5.52316
-4.24892
-4.77551
-5.27559
-4.38837
-4.77955
-5.13505
-4.27175
-4.51585
-4.79086
-4.9876
-4.65826
-4.81003
-4.95295
-4.71389
-4.82258
-4.92446
-4.7621
-4.83783
-4.92468
-4.98868
-4.78147
-4.84099
-4.90133
-4.77426
-4.82259
-4.86448
-4.71362
-4.73579
-4.75879
-4.76927
-29.8438
-30.192
-30.9486
-32.2622
-34.4524
-38.23
-45.1656
-55.4532
-1.65701
-14.8447
-27.2836
1.59708
-8.70968
-18.1036
1.54187
-6.33088
-13.5552
4.4094
-0.879294
-5.20374
-8.7679
-1.44213
-4.47483
-7.19398
-2.31994
-4.44474
-6.30808
-3.22361
-4.59981
-5.86767
-7.08932
-3.57937
-4.76443
-5.839
-3.87817
-4.73313
-5.50157
-4.1283
-4.75951
-5.33453
-4.03173
-4.45093
-4.79348
-5.0755
-4.55876
-4.79754
-5.01301
-4.63986
-4.81173
-4.96421
-4.70921
-4.82462
-4.93257
-5.0382
-4.72822
-4.83342
-4.93051
-4.73731
-4.81921
-4.89438
-4.67328
-4.72202
-4.7523
-4.76453
-29.8853
-30.2411
-31.0169
-32.3739
-34.6733
-38.8004
-47.3513
-67.6219
10.0304
-14.0493
-34.0954
8.79323
-8.27489
-22.8942
6.57189
-6.14683
-17.7065
8.88459
-0.138942
-5.32545
-10.6202
0.466655
-4.34537
-8.41801
-1.00124
-4.34166
-7.08849
-2.35928
-4.47259
-5.97402
-7.93594
-2.7315
-4.69988
-6.3269
-3.35088
-4.69766
-5.84877
-3.75656
-4.7436
-5.6402
-3.69646
-4.39317
-4.79957
-5.20834
-4.4171
-4.7868
-5.10633
-4.53547
-4.80233
-5.027
-4.63573
-4.81221
-4.94009
-5.11083
-4.65163
-4.82645
-4.976
-4.6849
-4.81618
-4.94093
-4.61794
-4.70978
-4.74695
-4.76051
-29.9048
-30.2643
-31.0493
-32.4275
-34.7814
-39.097
-48.7918
-84.7487
26.9116
-13.5115
-44.1385
19.0364
-7.99521
-29.9476
13.7471
-6.03563
-23.8158
15.1609
0.356669
-5.43731
-13.3102
3.18338
-4.2627
-10.2329
0.862916
-4.27613
-8.25403
-1.14909
-4.38469
-6.05051
-9.14738
-1.5185
-4.65708
-7.05159
-2.60426
-4.67462
-6.36266
-3.2284
-4.73343
-6.09178
-3.22779
-4.354
-4.80536
-5.40265
-4.21653
-4.77931
-5.24548
-4.38865
-4.79566
-5.12156
-4.5336
-4.80299
-4.94491
-5.21558
-4.54282
-4.82116
-5.04418
-4.61108
-4.81362
-5.01053
-4.54173
-4.70111
-4.7431
-4.75742
)
;

boundaryField
{
    left
    {
        type            calculated;
        value           nonuniform List<scalar> 
32
(
-20.9809
-21.0536
-21.1916
-21.3874
-21.6343
-21.9262
-22.2575
-22.6231
-23.0178
-23.4364
-23.8739
-24.325
-24.7845
-25.2471
-25.7075
-26.1605
-26.6011
-27.0247
-27.4268
-27.8038
-28.1525
-28.4705
-28.756
-29.008
-29.2262
-29.4111
-29.5636
-29.6852
-29.7779
-29.8438
-29.8853
-29.9048
)
;
    }
    right
    {
        type            calculated;
        value           nonuniform List<scalar> 
32
(
-5.00134
-4.99967
-4.9965
-4.99204
-4.98646
-4.97994
-4.9726
-4.96458
-4.95598
-4.9469
-4.93743
-4.92765
-4.91761
-4.90739
-4.89703
-4.88659
-4.87612
-4.86564
-4.85522
-4.84489
-4.83471
-4.82474
-4.81505
-4.80576
-4.79696
-4.78881
-4.78141
-4.77488
-4.76927
-4.76453
-4.76051
-4.75742
)
;
    }
    interface
    {
        type            calculated;
        value           nonuniform List<scalar> 
64
(
-29.9094
-30.2698
-31.057
-32.4404
-34.8076
-39.1725
-49.2595
-94.753
36.8543
-13.3338
-50.0939
25.0428
-7.90594
-34.1276
17.958
-6.00174
-27.4354
18.823
0.519867
-5.48175
-14.8966
4.77654
-4.23634
-11.3106
1.95368
-4.25529
-8.94777
-0.443383
-4.35491
-6.07688
-9.8587
-0.806162
-4.643
-7.48231
-2.16722
-4.66709
-6.66774
-2.91892
-4.73008
-6.35971
-2.9547
-4.34087
-4.80759
-5.51758
-4.09919
-4.77665
-5.32834
-4.30297
-4.79326
-5.17808
-4.47428
-4.79962
-4.94633
-5.27733
-4.47915
-4.81916
-5.08491
-4.56803
-4.81253
-5.05207
-4.49762
-4.69802
-4.74165
-4.75621
)
;
    }
    bottom
    {
        type            calculated;
        value           nonuniform List<scalar> 
64
(
-20.962
-20.8723
-20.694
-20.4292
-20.0816
-19.656
-19.1592
-18.5993
-17.9858
-17.3295
-16.6418
-15.9343
-15.2182
-14.504
-13.8011
-13.1176
-12.46
-11.8333
-11.2414
-10.6864
-10.1696
-9.69098
-9.24995
-8.8452
-8.47499
-8.13725
-7.82978
-7.55026
-7.2964
-7.066
-6.85695
-6.6673
-6.49528
-6.33927
-6.19784
-6.06969
-5.95366
-5.84872
-5.75391
-5.66838
-5.59133
-5.52203
-5.45978
-5.40394
-5.35391
-5.30913
-5.26909
-5.23329
-5.2013
-5.17272
-5.14721
-5.12445
-5.10417
-5.08614
-5.07016
-5.05608
-5.04377
-5.03314
-5.0241
-5.01663
-5.01068
-5.00622
-5.00326
-5.00178
)
;
    }
    defaultFaces
    {
        type            empty;
    }
}


// ************************************************************************* //
