/*--------------------------------*- C++ -*----------------------------------*\
| =========                 |                                                 |
| \\      /  F ield         | OpenFOAM: The Open Source CFD Toolbox           |
|  \\    /   O peration     | Version:  5.x                                   |
|   \\  /    A nd           | Web:      www.OpenFOAM.org                      |
|    \\/     M anipulation  |                                                 |
\*---------------------------------------------------------------------------*/
FoamFile
{
    version     2.0;
    format      ascii;
    class       volScalarField;
    location    "10.5";
    object      gradTy;
}
// * * * * * * * * * * * * * * * * * * * * * * * * * * * * * * * * * * * * * //

dimensions      [0 -1 0 1 0 0 0];

internalField   nonuniform List<scalar> 
2048
(
-20.1548
-20.058
-19.8653
-19.5791
-19.2027
-18.7415
-18.2019
-17.5927
-16.9236
-16.206
-15.4518
-14.6733
-13.8824
-13.0903
-12.3071
-11.5416
-10.8009
-10.0907
-9.41508
-8.77685
-8.17748
-7.61739
-7.09612
-6.61254
-6.16505
-5.75168
-5.3703
-5.01867
-4.69455
-4.3958
-4.1204
-3.86651
-3.63245
-3.41675
-3.21812
-3.03541
-2.8676
-2.71378
-2.57311
-2.44482
-2.32815
-2.22238
-2.12682
-2.04076
-1.96352
-1.89443
-1.83286
-1.77816
-1.72975
-1.68706
-1.64958
-1.6168
-1.58828
-1.56359
-1.54236
-1.52425
-1.50893
-1.49614
-1.48564
-1.47721
-1.47068
-1.4659
-1.46278
-1.46123
-20.2332
-20.1355
-19.941
-19.6519
-19.2715
-18.8047
-18.2584
-17.641
-16.9629
-16.2356
-15.4715
-14.6833
-13.8833
-13.0831
-12.2929
-11.5215
-10.7762
-10.0627
-9.38484
-8.74542
-8.14571
-7.58598
-7.06562
-6.58335
-6.13743
-5.72581
-5.34623
-4.9964
-4.67402
-4.37691
-4.103
-3.85045
-3.61758
-3.40294
-3.20523
-3.02334
-2.85627
-2.70313
-2.56309
-2.4354
-2.31931
-2.21412
-2.11911
-2.0336
-1.95691
-1.88835
-1.82727
-1.77305
-1.7251
-1.68284
-1.64575
-1.61334
-1.58515
-1.56077
-1.53982
-1.52196
-1.50686
-1.49427
-1.48393
-1.47565
-1.46923
-1.46454
-1.46147
-1.45996
-20.3821
-20.2828
-20.0851
-19.7907
-19.4025
-18.9255
-18.3661
-17.7333
-17.0377
-16.2917
-15.5086
-14.7018
-13.8845
-13.0687
-12.265
-11.4826
-10.7287
-10.0088
-9.3269
-8.68531
-8.08508
-7.52615
-7.00761
-6.52791
-6.08506
-5.67679
-5.30069
-4.95431
-4.63526
-4.34125
-4.07019
-3.82018
-3.58956
-3.3769
-3.18093
-3.00057
-2.83489
-2.68301
-2.54416
-2.41759
-2.3026
-2.19849
-2.10454
-2.02008
-1.94441
-1.87684
-1.81672
-1.76341
-1.71632
-1.67486
-1.63852
-1.6068
-1.57925
-1.55546
-1.53503
-1.51764
-1.50297
-1.49075
-1.48073
-1.47271
-1.46651
-1.46198
-1.45902
-1.45757
-20.5932
-20.4919
-20.2898
-19.9881
-19.5894
-19.0978
-18.52
-17.8649
-17.1441
-16.3711
-15.5604
-14.7268
-13.8846
-13.0464
-12.2237
-11.4257
-10.6597
-9.93109
-9.24361
-8.59922
-7.99852
-7.44099
-6.92527
-6.4494
-6.01104
-5.60764
-5.23656
-4.89514
-4.58084
-4.29126
-4.02422
-3.7778
-3.55033
-3.34042
-3.14686
-2.96864
-2.80487
-2.65474
-2.51754
-2.39255
-2.27909
-2.17648
-2.08404
-2.00105
-1.92683
-1.86067
-1.8019
-1.74988
-1.704
-1.66368
-1.62839
-1.59765
-1.571
-1.54802
-1.52833
-1.5116
-1.49753
-1.48582
-1.47626
-1.46862
-1.46272
-1.45843
-1.45562
-1.45424
-20.8591
-20.7556
-20.5485
-20.2384
-19.8268
-19.3172
-18.7159
-18.0323
-17.2789
-16.4708
-15.6245
-14.7563
-13.882
-13.0155
-12.1687
-11.351
-10.57
-9.8308
-9.13672
-8.48926
-7.88844
-7.3331
-6.82131
-6.35058
-5.91813
-5.52106
-5.15644
-4.82138
-4.51315
-4.22918
-3.9672
-3.72526
-3.5017
-3.29517
-3.10456
-2.92894
-2.76751
-2.61953
-2.48433
-2.36128
-2.24972
-2.149
-2.05842
-1.9773
-1.9049
-1.84051
-1.78344
-1.73304
-1.68867
-1.64978
-1.61581
-1.58629
-1.56075
-1.53879
-1.52003
-1.50413
-1.49079
-1.47974
-1.47074
-1.46357
-1.45806
-1.45406
-1.45145
-1.45017
-21.1734
-21.0676
-20.8555
-20.5364
-20.1105
-19.5801
-18.9508
-18.2326
-17.4394
-16.5884
-15.6983
-14.7881
-13.8752
-12.9747
-12.0991
-11.2585
-10.4601
-9.70884
-9.00757
-8.35716
-7.75686
-7.20475
-6.69814
-6.23392
-5.8088
-5.41948
-5.06271
-4.73532
-4.43435
-4.15706
-3.90107
-3.66436
-3.44531
-3.24267
-3.05542
-2.88276
-2.72398
-2.57844
-2.44555
-2.32472
-2.21535
-2.11682
-2.02845
-1.94952
-1.87928
-1.81698
-1.76192
-1.71341
-1.67083
-1.63361
-1.60119
-1.5731
-1.54887
-1.5281
-1.51041
-1.49548
-1.483
-1.47271
-1.46437
-1.45776
-1.4527
-1.44905
-1.44667
-1.44551
-21.5298
-21.4223
-21.2057
-20.8779
-20.437
-19.8836
-19.2225
-18.4639
-17.6235
-16.7214
-15.7797
-14.82
-13.8621
-12.9224
-12.0143
-11.1478
-10.3301
-9.56581
-8.8572
-8.20435
-7.60556
-7.05795
-6.55793
-6.10167
-5.68531
-5.30512
-4.9575
-4.63902
-4.34644
-4.07682
-3.82761
-3.59675
-3.3827
-3.1843
-3.0007
-2.83124
-2.67533
-2.53244
-2.40206
-2.28367
-2.17674
-2.08067
-1.99478
-1.91834
-1.85055
-1.79064
-1.73785
-1.69149
-1.65093
-1.61558
-1.5849
-1.55841
-1.53565
-1.51622
-1.49974
-1.48589
-1.47438
-1.46494
-1.45734
-1.45136
-1.44682
-1.44355
-1.44144
-1.44041
-21.9227
-21.8142
-21.5945
-21.2591
-20.8036
-20.226
-19.5294
-18.7245
-17.8294
-16.8678
-15.8662
-14.8498
-13.8408
-12.8572
-11.9131
-11.0183
-10.18
-9.40215
-8.68647
-8.03208
-7.43614
-6.89455
-6.40268
-5.95588
-5.5497
-5.17998
-4.84279
-4.53439
-4.25126
-3.99019
-3.74845
-3.52396
-3.31523
-3.1213
-2.94153
-2.7754
-2.6225
-2.48239
-2.35466
-2.23887
-2.13455
-2.04116
-1.95801
-1.88432
-1.81926
-1.76198
-1.71171
-1.66771
-1.62936
-1.59606
-1.56728
-1.54254
-1.52139
-1.50341
-1.48824
-1.47556
-1.4651
-1.45659
-1.44981
-1.44452
-1.44055
-1.43772
-1.43589
-1.43502
-22.3465
-22.2382
-22.0174
-21.6767
-21.2081
-20.6058
-19.8708
-19.0136
-18.0555
-17.0256
-15.9555
-14.875
-13.8092
-12.7776
-11.7945
-10.8696
-10.0097
-9.21822
-8.49613
-7.84151
-7.25009
-6.7163
-6.23429
-5.79849
-5.40389
-5.04592
-4.72034
-4.42314
-4.15045
-3.89877
-3.66512
-3.44735
-3.24414
-3.05479
-2.87888
-2.71615
-2.56631
-2.42905
-2.30404
-2.19094
-2.08937
-1.99883
-1.91864
-1.84796
-1.78588
-1.73147
-1.68391
-1.64246
-1.60647
-1.57537
-1.54863
-1.52577
-1.50632
-1.48989
-1.47612
-1.46469
-1.45534
-1.44783
-1.44192
-1.43738
-1.43402
-1.43167
-1.43016
-1.42945
-22.7955
-22.6891
-22.4702
-22.1279
-21.6489
-21.0227
-20.2465
-19.3308
-18.3009
-17.1928
-16.0451
-14.8932
-13.7652
-12.6819
-11.6575
-10.7013
-9.81919
-9.0143
-8.28686
-7.63374
-7.04888
-6.52491
-6.05455
-5.63132
-5.24962
-4.90459
-4.59176
-4.30681
-4.04555
-3.80403
-3.57898
-3.36818
-3.17055
-2.98572
-2.81363
-2.65426
-2.50748
-2.37307
-2.2508
-2.14044
-2.04169
-1.95415
-1.87713
-1.80971
-1.75083
-1.6995
-1.65484
-1.61608
-1.58259
-1.55381
-1.52921
-1.50832
-1.49068
-1.47587
-1.46355
-1.45343
-1.44525
-1.43878
-1.43379
-1.43006
-1.42735
-1.42551
-1.42434
-1.42381
-23.2644
-23.1621
-22.949
-22.6097
-22.1248
-21.4767
-20.6572
-19.6763
-18.5644
-17.3672
-16.1325
-14.9018
-13.7067
-12.5688
-11.5014
-10.5129
-9.60853
-8.79071
-8.05929
-7.40982
-6.83396
-6.32204
-5.86523
-5.45608
-5.08852
-4.75753
-4.45848
-4.1868
-3.9379
-3.70733
-3.49131
-3.28758
-3.09542
-2.91495
-2.74652
-2.59041
-2.44663
-2.31503
-2.19548
-2.08784
-1.99195
-1.90752
-1.83388
-1.76995
-1.71452
-1.66646
-1.62484
-1.58889
-1.558
-1.53162
-1.50925
-1.49042
-1.47465
-1.46153
-1.45071
-1.44192
-1.43495
-1.42956
-1.42554
-1.42265
-1.42064
-1.41934
-1.41854
-1.4182
-23.7474
-23.6518
-23.4495
-23.1197
-22.6351
-21.9687
-21.1045
-20.0508
-18.8453
-17.5468
-16.2148
-14.898
-13.6315
-12.4368
-11.3254
-10.3045
-9.37784
-8.54771
-7.81399
-7.17082
-6.60682
-6.10941
-5.66806
-5.27442
-4.92208
-4.60608
-4.32176
-4.0643
-3.82875
-3.6099
-3.4033
-3.20658
-3.01961
-2.8432
-2.67818
-2.52517
-2.38431
-2.25545
-2.13854
-2.03355
-1.94049
-1.85928
-1.78923
-1.72905
-1.67728
-1.63267
-1.59422
-1.56117
-1.53294
-1.50903
-1.48896
-1.47224
-1.45841
-1.44702
-1.43772
-1.43029
-1.42454
-1.42027
-1.41725
-1.41524
-1.41397
-1.41325
-1.41282
-1.4127
-24.239
-24.1532
-23.9675
-23.6553
-23.1792
-22.5001
-21.5907
-20.4557
-19.1425
-17.7289
-16.2889
-14.8789
-13.5376
-12.2848
-11.1293
-10.076
-9.12742
-8.28556
-7.55146
-6.9178
-6.369
-5.88872
-5.46473
-5.08792
-4.75166
-4.45144
-4.1827
-3.94038
-3.71918
-3.51293
-3.31606
-3.12608
-2.94384
-2.77104
-2.60909
-2.45902
-2.32099
-2.19478
-2.0804
-1.97793
-1.88761
-1.80968
-1.74347
-1.68732
-1.63945
-1.59844
-1.56326
-1.53315
-1.50763
-1.48623
-1.46849
-1.45395
-1.44212
-1.43248
-1.42471
-1.41862
-1.4141
-1.41097
-1.40899
-1.4079
-1.40741
-1.4073
-1.40727
-1.40736
-24.7334
-24.6609
-24.4988
-24.2138
-23.7569
-23.0732
-22.1193
-20.8932
-19.4552
-17.9106
-16.3514
-14.8414
-13.4227
-12.1121
-10.9128
-9.82794
-8.85782
-8.00445
-7.27204
-6.65185
-6.12221
-5.66174
-5.25694
-4.89809
-4.57849
-4.29466
-4.04223
-3.81589
-3.61016
-3.41753
-3.23066
-3.04689
-2.86869
-2.69897
-2.53967
-2.39235
-2.25708
-2.1334
-2.02143
-1.92131
-1.83354
-1.75893
-1.69686
-1.64508
-1.60131
-1.56404
-1.5322
-1.50505
-1.48225
-1.46338
-1.448
-1.43568
-1.42589
-1.41803
-1.41176
-1.40701
-1.40372
-1.40174
-1.40082
-1.4007
-1.40101
-1.40155
-1.40193
-1.40226
-25.2251
-25.1696
-25.0388
-24.7922
-24.3679
-23.691
-22.695
-21.3661
-19.7818
-18.0882
-16.3986
-14.7819
-13.285
-11.9183
-10.6762
-9.56108
-8.56984
-7.7044
-6.97587
-6.37412
-5.8683
-5.43027
-5.04633
-4.70639
-4.40364
-4.13659
-3.90115
-3.69152
-3.5025
-3.32478
-3.14817
-2.9697
-2.79464
-2.62734
-2.47017
-2.32547
-2.19297
-2.07166
-1.96197
-1.86396
-1.77842
-1.70716
-1.64961
-1.60259
-1.56315
-1.52973
-1.50127
-1.47705
-1.45694
-1.44061
-1.4276
-1.41755
-1.40986
-1.40378
-1.39898
-1.39551
-1.39343
-1.39262
-1.39278
-1.39368
-1.39483
-1.39605
-1.39685
-1.39743
-25.7085
-25.674
-25.5827
-25.3873
-25.0119
-24.3569
-23.324
-21.8785
-20.12
-18.2571
-16.4267
-14.6969
-13.1227
-11.7035
-10.42
-9.27662
-8.26473
-7.38516
-6.66273
-6.08586
-5.60943
-5.19612
-4.8345
-4.51426
-4.22799
-3.97796
-3.76012
-3.5677
-3.39687
-3.23579
-3.06969
-2.89508
-2.72198
-2.55644
-2.40077
-2.25862
-2.12902
-2.00987
-1.90233
-1.80617
-1.72233
-1.65442
-1.60192
-1.56017
-1.52522
-1.49573
-1.47068
-1.44929
-1.43183
-1.41804
-1.40738
-1.39964
-1.39413
-1.38985
-1.38642
-1.38417
-1.38329
-1.38364
-1.38492
-1.38687
-1.38891
-1.39085
-1.39208
-1.3929
-26.1783
-26.1688
-26.1253
-25.9954
-25.6882
-25.0751
-24.0143
-22.4359
-20.466
-18.4118
-16.4318
-14.582
-12.934
-11.4687
-10.1447
-8.97616
-7.94434
-7.04597
-6.33188
-5.78849
-5.34818
-4.961
-4.62297
-4.32315
-4.05217
-3.81931
-3.61976
-3.44463
-3.29374
-3.15175
-2.99646
-2.82337
-2.65086
-2.48651
-2.33147
-2.19198
-2.06558
-1.94827
-1.84282
-1.74824
-1.66524
-1.60066
-1.55397
-1.51812
-1.48775
-1.46226
-1.44062
-1.42188
-1.40702
-1.39576
-1.3874
-1.38202
-1.3788
-1.37633
-1.37415
-1.37302
-1.3733
-1.37484
-1.37725
-1.3803
-1.38327
-1.38596
-1.38764
-1.38871
-26.6296
-26.6486
-26.6615
-26.6119
-26.3953
-25.8503
-24.7764
-23.046
-20.8137
-18.5453
-16.4112
-14.4325
-12.7176
-11.2162
-9.85085
-8.66179
-7.61153
-6.68528
-5.98185
-5.48372
-5.08779
-4.72642
-4.41311
-4.13466
-3.87651
-3.661
-3.4807
-3.32215
-3.19335
-3.07396
-2.9299
-2.75468
-2.58124
-2.41778
-2.26215
-2.12567
-2.00311
-1.88701
-1.78376
-1.69055
-1.607
-1.54572
-1.50597
-1.47682
-1.45094
-1.42949
-1.41129
-1.39489
-1.38257
-1.37388
-1.36769
-1.36473
-1.36398
-1.36332
-1.36218
-1.36206
-1.3635
-1.36622
-1.3698
-1.374
-1.37796
-1.38143
-1.38356
-1.38486
-27.0579
-27.1087
-27.1858
-27.2316
-27.131
-26.6868
-25.6234
-23.7197
-21.1531
-18.6488
-16.3633
-14.242
-12.4722
-10.95
-9.538
-8.33604
-7.27077
-6.30021
-5.61012
-5.17376
-4.83243
-4.49339
-4.20611
-3.95069
-3.70085
-3.50325
-3.34376
-3.19968
-3.09566
-3.00399
-2.87182
-2.68869
-2.51288
-2.35062
-2.1924
-2.05973
-1.94219
-1.82611
-1.72545
-1.63361
-1.5473
-1.4893
-1.45813
-1.43673
-1.41493
-1.39755
-1.38289
-1.36835
-1.35852
-1.35249
-1.34825
-1.3478
-1.34976
-1.35097
-1.35055
-1.35128
-1.35388
-1.35779
-1.36256
-1.36797
-1.37299
-1.37727
-1.37986
-1.38138
-27.4593
-27.5443
-27.6925
-27.8486
-27.8913
-27.5889
-26.5717
-24.4729
-21.4678
-18.712
-16.2904
-14.0021
-12.1966
-10.6771
-9.20423
-8.0019
-6.92908
-5.88582
-5.21286
-4.86159
-4.58771
-4.26202
-4.00288
-3.77377
-3.52427
-3.3461
-3.21024
-3.07598
-3.00021
-2.94371
-2.82464
-2.62439
-2.44527
-2.28571
-2.1215
-1.99418
-1.88366
-1.76534
-1.66823
-1.57823
-1.48553
-1.43094
-1.41075
-1.39844
-1.37974
-1.36656
-1.3557
-1.34218
-1.33489
-1.33173
-1.32903
-1.33119
-1.33628
-1.33941
-1.33921
-1.34065
-1.34447
-1.34957
-1.35555
-1.36223
-1.36839
-1.37349
-1.37654
-1.37825
-27.8304
-27.9514
-28.176
-28.4558
-28.6707
-28.5594
-27.6413
-25.3294
-21.7319
-18.7223
-16.2004
-13.7001
-11.8899
-10.4089
-8.84436
-7.66273
-6.59757
-5.43387
-4.78455
-4.55128
-4.3613
-4.03077
-3.80398
-3.60757
-3.3447
-3.18943
-3.08224
-2.94892
-2.90606
-2.89545
-2.79168
-2.55978
-2.37768
-2.22431
-2.04817
-1.92897
-1.82883
-1.70404
-1.61241
-1.52565
-1.42072
-1.36996
-1.36423
-1.36277
-1.34525
-1.33658
-1.33007
-1.31621
-1.31166
-1.31179
-1.3099
-1.31487
-1.32367
-1.32884
-1.32812
-1.33012
-1.33526
-1.34153
-1.34875
-1.35676
-1.36419
-1.37012
-1.37361
-1.37548
-28.1686
-28.3264
-28.6309
-29.0456
-29.4612
-29.5988
-28.856
-26.3249
-21.9043
-18.6652
-16.1107
-13.3166
-11.5512
-10.1633
-8.4477
-7.32222
-6.29367
-4.93104
-4.31773
-4.2484
-4.16391
-3.79543
-3.60959
-3.45764
-3.15823
-3.03298
-2.96335
-2.81501
-2.8116
-2.86209
-2.77772
-2.49121
-2.30911
-2.16866
-1.97023
-1.86397
-1.77974
-1.64088
-1.55835
-1.47782
-1.35131
-1.30545
-1.31912
-1.33085
-1.31105
-1.3076
-1.30656
-1.2901
-1.28879
-1.29298
-1.29065
-1.29874
-1.31209
-1.31953
-1.31713
-1.3196
-1.32631
-1.33369
-1.34216
-1.35155
-1.36042
-1.36717
-1.37107
-1.37306
-28.4722
-28.6665
-29.0522
-29.6097
-30.2525
-30.7041
-30.2427
-27.5139
-21.9219
-18.5245
-16.0543
-12.8209
-11.1797
-9.9691
-7.99445
-6.98427
-6.04448
-4.35618
-3.8029
-3.96049
-4.0106
-3.54756
-3.41943
-3.33265
-2.95812
-2.87636
-2.85943
-2.66881
-2.71454
-2.84711
-2.7897
-2.41262
-2.23832
-2.12265
-1.88417
-1.79903
-1.73959
-1.57344
-1.50639
-1.43781
-1.2748
-1.23629
-1.2762
-1.30426
-1.27629
-1.27959
-1.28599
-1.26323
-1.26622
-1.2758
-1.27093
-1.28265
-1.30174
-1.31186
-1.306
-1.30899
-1.31766
-1.32602
-1.33577
-1.34659
-1.35711
-1.36465
-1.36892
-1.37098
-28.7402
-28.9696
-29.4354
-30.1395
-31.0317
-31.8666
-31.8298
-28.9792
-21.6879
-18.2833
-16.0869
-12.1644
-10.7747
-9.87038
-7.45064
-6.65288
-5.89147
-3.67634
-3.22878
-3.69731
-3.92266
-3.27229
-3.23282
-3.24596
-2.73327
-2.7191
-2.77983
-2.50194
-2.61177
-2.85461
-2.83778
-2.31432
-2.16388
-2.09265
-1.78432
-1.73398
-1.71338
-1.49761
-1.45686
-1.41031
-1.18737
-1.16113
-1.23649
-1.28525
-1.23948
-1.25244
-1.26965
-1.23459
-1.24388
-1.26102
-1.25017
-1.26641
-1.29287
-1.30635
-1.29435
-1.29818
-1.30943
-1.3185
-1.32955
-1.34184
-1.35431
-1.36258
-1.36713
-1.3692
-28.9723
-29.2345
-29.7768
-30.6265
-31.7832
-33.0708
-33.644
-30.8458
-21.0578
-17.9256
-16.2979
-11.2714
-10.3362
-9.93412
-6.76091
-6.33204
-5.89692
-2.84101
-2.58335
-3.471
-3.9302
-2.94523
-3.04884
-3.21801
-2.46611
-2.56082
-2.73907
-2.30177
-2.49955
-2.88908
-2.93684
-2.18135
-2.08436
-2.08872
-1.66184
-1.66863
-1.70871
-1.40681
-1.4101
-1.40245
-1.08314
-1.07857
-1.20127
-1.27696
-1.19814
-1.22604
-1.25948
-1.20255
-1.22169
-1.2498
-1.22746
-1.24981
-1.28574
-1.30374
-1.28155
-1.28705
-1.30179
-1.31107
-1.32348
-1.33726
-1.3521
-1.36096
-1.36569
-1.36772
-29.169
-29.4608
-30.0737
-31.0627
-32.4896
-34.292
-35.7039
-33.3004
-19.8185
-17.4385
-16.824
-10.0256
-9.86531
-10.2599
-5.8388
-6.02574
-6.15264
-1.77415
-1.85581
-3.2956
-4.07568
-2.52842
-2.86658
-3.27936
-2.12964
-2.40139
-2.75892
-2.04956
-2.37382
-2.95494
-3.10852
-1.99123
-1.99856
-2.12617
-1.50322
-1.60293
-1.73695
-1.2908
-1.36643
-1.42474
-0.95332
-0.98737
-1.1721
-1.28384
-1.1484
-1.20026
-1.25841
-1.16463
-1.1996
-1.2439
-1.20147
-1.23263
-1.28065
-1.3051
-1.26666
-1.27551
-1.29502
-1.30365
-1.31757
-1.33275
-1.35057
-1.3598
-1.36458
-1.36651
-29.3313
-29.649
-30.3244
-31.4415
-33.1324
-35.4951
-38.0107
-36.6183
-17.6617
-16.8169
-17.8675
-8.25308
-9.36594
-10.9926
-4.55378
-5.73802
-6.79133
-0.363267
-1.04027
-3.18576
-4.41865
-1.96494
-2.68571
-3.47475
-1.68349
-2.24134
-2.87123
-1.71787
-2.23099
-3.05558
-3.38405
-1.71103
-1.9059
-2.22763
-1.28828
-1.53706
-1.81473
-1.13422
-1.3262
-1.49242
-0.784908
-0.886871
-1.15061
-1.31208
-1.08448
-1.17505
-1.27069
-1.11711
-1.17766
-1.24586
-1.17018
-1.21473
-1.27787
-1.31193
-1.2483
-1.26354
-1.28952
-1.2961
-1.31183
-1.32823
-1.34988
-1.35911
-1.36376
-1.36556
-29.4607
-29.8
-30.5284
-31.7574
-33.6932
-36.6345
-40.5332
-41.1981
-14.1488
-16.0691
-19.7186
-5.699
-8.84668
-12.3389
-2.71474
-5.47335
-8.00098
1.55506
-0.141607
-3.15412
-5.04201
-1.17206
-2.50718
-3.86818
-1.06881
-2.08242
-3.12136
-1.26722
-2.06927
-3.19188
-3.80789
-1.29358
-1.80703
-2.4256
-0.987637
-1.47173
-1.96582
-0.914657
-1.2898
-1.6271
-0.559033
-0.77769
-1.1383
-1.37027
-0.997904
-1.15055
-1.30242
-1.05454
-1.15609
-1.25927
-1.13066
-1.19613
-1.27757
-1.32631
-1.22445
-1.25126
-1.28584
-1.28817
-1.30631
-1.32352
-1.35023
-1.35887
-1.36322
-1.36484
-29.5595
-29.9157
-30.6865
-32.0076
-34.1557
-37.6547
-43.1867
-47.6082
-8.66747
-15.2255
-22.7822
-1.99914
-8.3242
-14.5868
-0.0493266
-5.23714
-10.0428
4.21391
0.815687
-3.20682
-6.06009
-0.0327455
-2.33445
-4.54912
-0.201779
-1.92846
-3.57244
-0.6417
-1.89088
-3.35978
-4.44261
-0.672643
-1.70464
-2.76551
-0.559385
-1.40848
-2.2235
-0.600275
-1.25778
-1.85885
-0.248794
-0.662733
-1.13604
-1.47023
-0.876712
-1.12719
-1.36208
-0.96916
-1.13536
-1.28913
-1.07869
-1.17721
-1.27977
-1.35115
-1.19228
-1.23899
-1.28474
-1.27951
-1.30115
-1.31842
-1.35192
-1.35907
-1.36294
-1.36435
-29.6298
-29.9984
-30.8005
-32.191
-34.5071
-38.4947
-45.8038
-56.6439
-0.376792
-14.3496
-27.6104
3.35526
-7.82796
-18.1301
3.82099
-5.03686
-13.2727
7.93953
1.77494
-3.33647
-7.62898
1.61469
-2.17492
-5.64001
1.03424
-1.78662
-4.31034
0.236536
-1.70515
-3.54678
-5.37486
0.242857
-1.60462
-3.30947
0.0548046
-1.35023
-2.63332
-0.146882
-1.23099
-2.22868
0.183458
-0.548639
-1.14336
-1.62807
-0.704346
-1.10593
-1.46128
-0.85012
-1.11643
-1.34217
-1.00838
-1.15891
-1.28408
-1.39045
-1.14785
-1.22741
-1.28722
-1.26955
-1.29661
-1.31261
-1.3554
-1.35966
-1.36291
-1.36412
-29.6742
-30.0508
-30.8731
-32.3092
-34.74
-39.0942
-48.0966
-69.3978
11.8572
-13.5528
-34.9381
11.0589
-7.40646
-23.4955
9.41025
-4.88343
-18.1665
13.1802
2.63026
-3.51199
-9.95925
3.98883
-2.04203
-7.30478
2.79812
-1.66901
-5.44943
1.47405
-1.53313
-3.72722
-6.72283
1.57587
-1.51751
-4.14041
0.934401
-1.30195
-3.25635
0.50546
-1.21072
-2.79143
0.789448
-0.447734
-1.15734
-1.86545
-0.458402
-1.08851
-1.61552
-0.682632
-1.10092
-1.42734
-0.911615
-1.14307
-1.28957
-1.44961
-1.08579
-1.21773
-1.29454
-1.25752
-1.29313
-1.30568
-1.36126
-1.36058
-1.36319
-1.36418
-29.6953
-30.0757
-30.9078
-32.3661
-34.8541
-39.4061
-49.6074
-87.3441
29.5376
-13.0132
-45.7239
22.0399
-7.13545
-31.3738
17.4014
-4.79329
-25.3492
20.5407
3.20429
-3.66465
-13.3315
7.37931
-1.9577
-9.75847
5.30171
-1.59477
-7.13903
3.21421
-1.41343
-3.8558
-8.64521
3.48933
-1.46032
-5.36671
2.18541
-1.2715
-4.17273
1.43637
-1.19896
-3.61908
1.63899
-0.380484
-1.17105
-2.21114
-0.109081
-1.07763
-1.84497
-0.446809
-1.09127
-1.55612
-0.777309
-1.13272
-1.2942
-1.53566
-0.998773
-1.21164
-1.30804
-1.2421
-1.29116
-1.2968
-1.3701
-1.36145
-1.36362
-1.36435
)
;

boundaryField
{
    left
    {
        type            calculated;
        value           nonuniform List<scalar> 
32
(
-20.1548
-20.2332
-20.3821
-20.5932
-20.8591
-21.1734
-21.5298
-21.9227
-22.3465
-22.7955
-23.2644
-23.7474
-24.239
-24.7334
-25.2251
-25.7085
-26.1783
-26.6296
-27.0579
-27.4593
-27.8304
-28.1686
-28.4722
-28.7402
-28.9723
-29.169
-29.3313
-29.4607
-29.5595
-29.6298
-29.6742
-29.6953
)
;
    }
    right
    {
        type            calculated;
        value           nonuniform List<scalar> 
32
(
-1.46123
-1.45996
-1.45757
-1.45424
-1.45017
-1.44551
-1.44041
-1.43502
-1.42945
-1.42381
-1.4182
-1.4127
-1.40736
-1.40226
-1.39743
-1.3929
-1.38871
-1.38486
-1.38138
-1.37825
-1.37548
-1.37306
-1.37098
-1.3692
-1.36772
-1.36651
-1.36556
-1.36484
-1.36435
-1.36412
-1.36418
-1.36435
)
;
    }
    interface
    {
        type            calculated;
        value           nonuniform List<scalar> 
64
(
-29.7004
-30.0817
-30.9161
-32.3798
-34.8819
-39.4855
-50.0978
-97.8263
39.9529
-12.8348
-52.1164
28.4819
-7.04902
-36.0388
22.0946
-4.76652
-29.6012
24.8375
3.39358
-3.72381
-15.3181
9.36974
-1.93103
-11.2129
6.7686
-1.57141
-8.14251
4.23044
-1.3728
-3.90001
-9.77267
4.61432
-1.44179
-6.09399
2.91886
-1.26192
-4.71559
1.98277
-1.1955
-4.1093
2.13465
-0.358423
-1.17666
-2.41514
0.0956647
-1.07424
-1.98133
-0.308969
-1.08827
-1.633
-0.699167
-1.12936
-1.29596
-1.58639
-0.947962
-1.20974
-1.31648
-1.23333
-1.2906
-1.29173
-1.37533
-1.3618
-1.36382
-1.3644
)
;
    }
    bottom
    {
        type            calculated;
        value           nonuniform List<scalar> 
64
(
-20.1344
-20.0378
-19.8456
-19.5601
-19.1848
-18.725
-18.1873
-17.5801
-16.9134
-16.1983
-15.4466
-14.6706
-13.8821
-13.0921
-12.3108
-11.5468
-10.8073
-10.0979
-9.42292
-8.78502
-8.18575
-7.62557
-7.10406
-6.62016
-6.17225
-5.75844
-5.37659
-5.02449
-4.69992
-4.40075
-4.12496
-3.87071
-3.63634
-3.42037
-3.22149
-3.03857
-2.87056
-2.71656
-2.57573
-2.44728
-2.33045
-2.22454
-2.12883
-2.04263
-1.96525
-1.89603
-1.83432
-1.77949
-1.73096
-1.68817
-1.65058
-1.61771
-1.58909
-1.56433
-1.54303
-1.52485
-1.50947
-1.49663
-1.48609
-1.47762
-1.47106
-1.46626
-1.46312
-1.46157
)
;
    }
    defaultFaces
    {
        type            empty;
    }
}


// ************************************************************************* //
