/*--------------------------------*- C++ -*----------------------------------*\
| =========                 |                                                 |
| \\      /  F ield         | OpenFOAM: The Open Source CFD Toolbox           |
|  \\    /   O peration     | Version:  5.x                                   |
|   \\  /    A nd           | Web:      www.OpenFOAM.org                      |
|    \\/     M anipulation  |                                                 |
\*---------------------------------------------------------------------------*/
FoamFile
{
    version     2.0;
    format      ascii;
    class       volScalarField;
    location    "10.5";
    object      T;
}
// * * * * * * * * * * * * * * * * * * * * * * * * * * * * * * * * * * * * * //

dimensions      [0 0 0 1 0 0 0];

internalField   nonuniform List<scalar> 
2048
(
9.85535
9.85604
9.85742
9.85948
9.86217
9.86547
9.86934
9.8737
9.87849
9.88363
9.88903
9.8946
9.90027
9.90594
9.91156
9.91704
9.92236
9.92745
9.9323
9.93689
9.94119
9.94522
9.94896
9.95244
9.95566
9.95863
9.96137
9.9639
9.96623
9.96838
9.97037
9.97219
9.97388
9.97543
9.97686
9.97817
9.97938
9.98048
9.9815
9.98242
9.98326
9.98402
9.98471
9.98533
9.98588
9.98638
9.98682
9.98722
9.98756
9.98787
9.98814
9.98838
9.98858
9.98876
9.98891
9.98905
9.98916
9.98925
9.98932
9.98938
9.98943
9.98947
9.98949
9.9895
9.5718
9.57386
9.57795
9.58404
9.59204
9.60184
9.61332
9.62627
9.6405
9.65575
9.67179
9.68834
9.70516
9.72199
9.73864
9.75491
9.77065
9.78574
9.80009
9.81365
9.82638
9.83827
9.84934
9.85961
9.86911
9.87789
9.88599
9.89345
9.90033
9.90667
9.91252
9.91791
9.92288
9.92746
9.93167
9.93555
9.93912
9.94238
9.94537
9.94809
9.95057
9.95281
9.95484
9.95667
9.95831
9.95978
9.96108
9.96224
9.96327
9.96418
9.96497
9.96567
9.96627
9.9668
9.96725
9.96763
9.96796
9.96823
9.96845
9.96863
9.96877
9.96887
9.96893
9.96897
9.29909
9.30247
9.3092
9.3192
9.33235
9.34849
9.36737
9.3887
9.41213
9.43726
9.46366
9.4909
9.51856
9.54623
9.57357
9.60026
9.62606
9.65078
9.67426
9.69642
9.71722
9.73663
9.75469
9.77142
9.7869
9.80119
9.81437
9.82652
9.83772
9.84804
9.85755
9.86632
9.87441
9.88186
9.88873
9.89504
9.90084
9.90616
9.91102
9.91545
9.91949
9.92314
9.92644
9.92941
9.93207
9.93446
9.93658
9.93846
9.94013
9.9416
9.94289
9.94402
9.945
9.94585
9.94658
9.9472
9.94772
9.94816
9.94852
9.94881
9.94904
9.9492
9.94931
9.94936
9.03597
9.04064
9.04993
9.06376
9.08196
9.10431
9.13048
9.16007
9.19257
9.22744
9.26406
9.30181
9.34011
9.37839
9.41616
9.453
9.48856
9.52257
9.55485
9.58528
9.61379
9.64038
9.66508
9.68796
9.70911
9.72862
9.74661
9.76318
9.77845
9.79252
9.8055
9.81746
9.82849
9.83866
9.84803
9.85666
9.86458
9.87183
9.87847
9.88452
9.89002
9.89501
9.89951
9.90355
9.90718
9.91043
9.91331
9.91588
9.91814
9.92014
9.92189
9.92342
9.92475
9.9259
9.92689
9.92773
9.92844
9.92903
9.92952
9.92991
9.93021
9.93043
9.93057
9.93065
8.78141
8.78734
8.79914
8.81672
8.8399
8.86839
8.90179
8.93959
8.98113
9.02569
9.07246
9.12065
9.16948
9.21821
9.26623
9.31298
9.35804
9.40107
9.44183
9.4802
9.51609
9.54953
9.58055
9.60925
9.63575
9.66018
9.6827
9.70343
9.72253
9.74013
9.75636
9.77133
9.78513
9.79786
9.8096
9.82039
9.83031
9.8394
9.84772
9.85529
9.86218
9.86841
9.87404
9.87909
9.88363
9.88767
9.89127
9.89447
9.89729
9.89977
9.90195
9.90385
9.9055
9.90693
9.90815
9.90919
9.91007
9.91081
9.91141
9.91189
9.91226
9.91253
9.91271
9.9128
8.53455
8.54171
8.55598
8.57726
8.60535
8.63994
8.68057
8.72658
8.77719
8.83147
8.88843
8.94705
9.00635
9.06546
9.12358
9.18007
9.2344
9.28619
9.33515
9.38114
9.4241
9.46404
9.50105
9.53525
9.5668
9.59586
9.62261
9.64724
9.66992
9.69082
9.7101
9.72788
9.74429
9.75943
9.77338
9.78623
9.79803
9.80884
9.81873
9.82774
9.83593
9.84333
9.85001
9.85601
9.86138
9.86617
9.87043
9.87421
9.87754
9.88047
9.88304
9.88528
9.88722
9.8889
9.89034
9.89156
9.8926
9.89345
9.89416
9.89472
9.89515
9.89547
9.89568
9.89578
8.29471
8.30306
8.31974
8.34466
8.37762
8.4183
8.46616
8.52046
8.58023
8.64434
8.71157
8.78067
8.85047
8.9199
8.98804
9.05411
9.11752
9.17782
9.23471
9.28802
9.33772
9.38385
9.42652
9.46589
9.50217
9.53556
9.56627
9.59454
9.62056
9.64454
9.66665
9.68706
9.70591
9.7233
9.73934
9.7541
9.76767
9.78011
9.79148
9.80184
9.81124
9.81974
9.82739
9.83427
9.84041
9.84589
9.85076
9.85507
9.85887
9.86221
9.86513
9.86768
9.86989
9.87179
9.87342
9.87481
9.87598
9.87694
9.87774
9.87837
9.87886
9.87921
9.87945
9.87956
8.06131
8.07083
8.08986
8.11834
8.15612
8.20288
8.25802
8.32071
8.38978
8.46388
8.54153
8.62123
8.70159
8.78134
8.85942
8.93496
9.00726
9.07584
9.14038
9.20073
9.25685
9.30883
9.35684
9.40107
9.44177
9.47919
9.51359
9.54523
9.57434
9.60117
9.62593
9.64879
9.6699
9.68941
9.7074
9.72397
9.7392
9.75316
9.76591
9.77753
9.78806
9.79758
9.80614
9.81383
9.82069
9.8268
9.83222
9.83701
9.84124
9.84495
9.84819
9.85101
9.85346
9.85556
9.85736
9.85889
9.86018
9.86124
9.86212
9.86281
9.86334
9.86373
9.86398
9.86411
7.8339
7.84454
7.86584
7.89781
7.94034
7.99316
8.05566
8.12686
8.20544
8.28975
8.37802
8.46848
8.55948
8.64958
8.73756
8.82244
8.90346
8.98011
9.05204
9.11912
9.18134
9.23886
9.29187
9.34064
9.38546
9.42663
9.46443
9.49918
9.53116
9.56063
9.58783
9.61296
9.63619
9.65766
9.67748
9.69574
9.71253
9.72791
9.74197
9.75476
9.76635
9.77681
9.78622
9.79464
9.80216
9.80884
9.81477
9.82
9.82461
9.82865
9.83218
9.83524
9.8379
9.84018
9.84213
9.84378
9.84517
9.84632
9.84726
9.848
9.84857
9.84899
9.84926
9.84939
7.61214
7.62384
7.64731
7.68264
7.72984
7.7887
7.85862
7.93852
8.02684
8.12163
8.22078
8.32219
8.42396
8.52444
8.62227
8.71639
8.80598
8.89047
8.96953
9.04303
9.11105
9.17376
9.23146
9.28446
9.33309
9.37772
9.41866
9.45628
9.49088
9.52277
9.55223
9.57946
9.60467
9.62798
9.6495
9.66935
9.68759
9.70431
9.71958
9.73347
9.74605
9.75738
9.76756
9.77666
9.78478
9.79198
9.79836
9.80399
9.80894
9.81327
9.81705
9.82033
9.82317
9.82561
9.82769
9.82944
9.83092
9.83214
9.83312
9.83391
9.83451
9.83495
9.83523
9.83537
7.39576
7.40844
7.43395
7.4725
7.52424
7.58909
7.6665
7.7553
7.85366
7.95925
8.06957
8.18216
8.29483
8.40575
8.51341
8.61666
8.71465
8.80676
8.89268
8.97231
9.04578
9.11337
9.17543
9.23234
9.2845
9.3323
9.37613
9.41636
9.45336
9.48747
9.519
9.54819
9.57522
9.60025
9.62337
9.6447
9.66431
9.68228
9.69868
9.7136
9.72709
9.73923
9.75012
9.75984
9.76849
9.77616
9.78295
9.78893
9.79418
9.79877
9.80277
9.80624
9.80924
9.8118
9.81399
9.81584
9.81738
9.81866
9.81969
9.82051
9.82113
9.82158
9.82187
9.82202
7.18454
7.19812
7.22551
7.26708
7.3232
7.39396
7.47894
7.57686
7.6856
7.80238
7.92421
8.04823
8.17195
8.29334
8.4108
8.52308
8.62929
8.72881
8.82132
8.90676
8.98536
9.05749
9.12359
9.18412
9.23951
9.29022
9.33667
9.37928
9.41846
9.45459
9.48802
9.51901
9.54774
9.57437
9.599
9.62171
9.6426
9.66174
9.67921
9.69507
9.70941
9.72231
9.73384
9.74412
9.75325
9.76134
9.76848
9.77477
9.78029
9.78511
9.7893
9.79293
9.79606
9.79873
9.80101
9.80293
9.80453
9.80585
9.80692
9.80775
9.80839
9.80885
9.80915
9.8093
6.97837
6.99273
7.0218
7.06615
7.12641
7.20298
7.29557
7.40288
7.52241
7.65081
7.78452
7.92025
8.05517
8.18708
8.31427
8.43547
8.54973
8.65644
8.75526
8.8462
8.92959
9.00593
9.07575
9.13958
9.19794
9.2513
9.30012
9.34488
9.38603
9.42399
9.45915
9.4918
9.52212
9.55025
9.57628
9.60029
9.62238
9.64261
9.66108
9.67783
9.69296
9.70654
9.71866
9.72944
9.73899
9.74745
9.75491
9.76147
9.76722
9.77224
9.77659
9.78036
9.78359
9.78636
9.78871
9.79069
9.79234
9.79369
9.79477
9.79562
9.79627
9.79673
9.79703
9.79718
6.77715
6.79217
6.82268
6.8695
6.93363
7.01581
7.11606
7.23305
7.36385
7.50437
7.65038
7.79809
7.94435
8.08679
8.22366
8.35364
8.4758
8.58947
8.69432
8.79042
8.87825
8.95845
9.03168
9.09854
9.1596
9.21536
9.26633
9.31301
9.35591
9.39552
9.43226
9.46644
9.49824
9.52777
9.55512
9.58036
9.60357
9.62483
9.64422
9.66181
9.67767
9.69187
9.70452
9.71574
9.72568
9.73446
9.74219
9.74899
9.75494
9.76012
9.76461
9.76848
9.77181
9.77465
9.77706
9.77908
9.78076
9.78213
9.78323
9.78408
9.78473
9.78519
9.78549
9.78564
6.58084
6.59637
6.62805
6.67699
6.7446
6.83215
6.94007
7.06708
7.2097
7.36291
7.52167
7.68165
7.83936
7.99233
8.13879
8.27742
8.40728
8.52771
8.6383
8.73921
8.83112
8.91487
8.9912
9.0608
9.1243
9.18223
9.23511
9.28352
9.32797
9.36903
9.4072
9.4428
9.47599
9.50685
9.53544
9.56182
9.58608
9.60831
9.62857
9.64694
9.66348
9.67825
9.69137
9.70298
9.71325
9.7223
9.73027
9.73727
9.74339
9.74871
9.75331
9.75727
9.76067
9.76356
9.76602
9.76807
9.76977
9.77115
9.77225
9.7731
9.77375
9.7742
9.7745
9.77464
6.38944
6.40532
6.43785
6.48847
6.55912
6.65171
6.76727
6.90467
7.0598
7.22633
7.39829
7.57083
7.74009
7.90353
8.05949
8.20661
8.344
8.47098
8.58702
8.69238
8.78799
8.87493
8.95407
9.02616
9.09187
9.15174
9.20633
9.25624
9.30205
9.34439
9.38385
9.42077
9.45527
9.48737
9.51714
9.5446
9.56984
9.59297
9.61405
9.63315
9.65032
9.66562
9.67915
9.6911
9.70164
9.71093
9.71911
9.72628
9.73254
9.73797
9.74266
9.74669
9.75013
9.75307
9.75555
9.75763
9.75934
9.76072
9.76181
9.76266
9.76329
9.76373
9.76402
9.76415
6.20298
6.21903
6.25206
6.30387
6.37701
6.4742
6.5973
6.74554
6.91398
7.09454
7.28018
7.46558
7.64642
7.82024
7.98557
8.141
8.28574
8.41909
8.5403
8.6497
8.74862
8.83844
8.92009
8.99441
9.06212
9.12372
9.17981
9.23105
9.27802
9.32145
9.36206
9.40023
9.43596
9.46925
9.50013
9.52861
9.55477
9.57875
9.60059
9.62038
9.63815
9.65392
9.66781
9.68004
9.69082
9.70031
9.70865
9.71596
9.72234
9.72786
9.73262
9.73669
9.74017
9.74313
9.74563
9.74772
9.74943
9.75081
9.75189
9.75272
9.75333
9.75375
9.75403
9.75416
6.0215
6.03752
6.07067
6.12313
6.19811
6.29933
6.42979
6.58936
6.77214
6.96752
7.16729
7.36582
7.55824
7.74227
7.91683
8.08038
8.23227
8.37187
8.49796
8.61096
8.71276
8.80516
8.88905
8.96536
9.03488
9.09802
9.15542
9.2078
9.25573
9.30007
9.34171
9.38107
9.41799
9.4524
9.48435
9.51377
9.5408
9.56557
9.58813
9.60856
9.6269
9.64311
9.6573
9.66975
9.68072
9.69037
9.69885
9.70629
9.71275
9.71834
9.72315
9.72726
9.73075
9.73372
9.73623
9.73832
9.74003
9.74139
9.74245
9.74325
9.74384
9.74425
9.74451
9.74463
5.84506
5.86086
5.89372
5.94622
6.02229
6.12682
6.26435
6.43582
6.63423
6.84526
7.05956
7.27153
7.47542
7.66942
7.8531
8.02451
8.18336
8.32916
8.45983
8.57593
8.68018
8.77487
8.86073
8.9388
9.00998
9.07448
9.133
9.18637
9.23507
9.28012
9.32267
9.36319
9.40125
9.43674
9.46971
9.50002
9.52784
9.55337
9.5766
9.59764
9.61654
9.63313
9.64756
9.66018
9.67131
9.68109
9.68967
9.69721
9.70375
9.70939
9.71423
9.71835
9.72183
9.7248
9.72732
9.72941
9.7311
9.73244
9.73347
9.73424
9.7348
9.73518
9.73543
9.73554
5.67373
5.6891
5.72127
5.77315
5.84945
5.95639
6.10053
6.28454
6.50026
6.7278
6.95693
7.18271
7.39787
7.60147
7.79417
7.97317
8.13875
8.29082
8.42578
8.5444
8.65061
8.74736
8.83495
8.91454
8.98728
9.05296
9.11242
9.16665
9.21592
9.26145
9.30479
9.3465
9.38568
9.42218
9.45616
9.48729
9.51582
9.54209
9.56594
9.58755
9.607
9.62396
9.63855
9.65128
9.66253
9.6724
9.68107
9.68869
9.69528
9.70095
9.70582
9.70993
9.71339
9.71635
9.71887
9.72095
9.72262
9.72393
9.72493
9.72567
9.72619
9.72654
9.72677
9.72687
5.50756
5.52232
5.55337
5.60396
5.67953
5.7878
5.93784
6.13509
6.37037
6.61524
6.85929
7.09937
7.32545
7.53813
7.7399
7.9261
8.09814
8.25675
8.39569
8.51613
8.62375
8.72244
8.8115
8.89239
8.96663
9.03333
9.09352
9.14854
9.19818
9.24392
9.28794
9.33092
9.37118
9.40863
9.44362
9.4755
9.50467
9.53166
9.55609
9.57823
9.59827
9.61554
9.63021
9.64298
9.65434
9.66428
9.673
9.6807
9.68733
9.69301
9.69789
9.70198
9.7054
9.70833
9.71085
9.71293
9.71457
9.71585
9.71681
9.7175
9.71798
9.7183
9.71851
9.7186
5.34662
5.36057
5.39011
5.43872
5.51252
5.6208
5.77575
5.98691
6.24483
6.50771
6.76648
7.02161
7.25806
7.47907
7.69016
7.88305
8.06115
8.22688
8.36948
8.49086
8.59931
8.69995
8.79021
8.87211
8.94794
9.01545
9.07617
9.13197
9.18175
9.2274
9.27197
9.3164
9.35772
9.39602
9.43207
9.4646
9.49431
9.52205
9.54698
9.56961
9.59029
9.60784
9.62251
9.63525
9.64671
9.65669
9.66543
9.67322
9.67986
9.68553
9.69042
9.69447
9.69783
9.70073
9.70325
9.70531
9.70693
9.70816
9.70908
9.70972
9.71015
9.71043
9.71062
9.7107
5.19095
5.20394
5.23158
5.27753
5.34845
5.4552
5.61363
5.8393
6.12415
6.40541
6.67818
6.94962
7.19556
7.42385
7.64489
7.84375
8.02735
8.20125
8.3471
8.46833
8.57692
8.67975
8.7709
8.8535
8.93111
8.99921
9.0602
9.11688
9.16656
9.21175
9.25671
9.30291
9.34522
9.38425
9.42146
9.45454
9.48466
9.51321
9.53856
9.56161
9.58307
9.60085
9.61538
9.62802
9.6396
9.64958
9.65831
9.6662
9.67284
9.67848
9.68338
9.68738
9.69065
9.6935
9.69605
9.69809
9.69966
9.70086
9.70172
9.7023
9.70269
9.70293
9.7031
9.70316
5.04059
5.05246
5.07786
5.1205
5.18741
5.29088
5.45083
5.6913
6.00917
6.30856
6.5939
6.88373
7.13783
7.37189
7.60416
7.80793
7.99615
8.17998
8.32854
8.44825
8.55618
8.66178
8.75343
8.83628
8.91611
8.98451
9.04542
9.10326
9.15256
9.1968
9.24198
9.29045
9.33365
9.3732
9.4118
9.44525
9.47561
9.50513
9.53078
9.55415
9.57658
9.59455
9.60878
9.62123
9.63298
9.64293
9.65161
9.65963
9.66625
9.67181
9.67675
9.68068
9.68384
9.68662
9.68921
9.69124
9.69276
9.69391
9.69472
9.69524
9.69556
9.69576
9.69591
9.69596
4.89555
4.90618
4.92904
4.96777
5.02955
5.12777
5.28663
5.5416
5.90117
6.21743
6.51283
6.82449
7.08475
7.32239
7.56823
7.77532
7.96678
8.16338
8.31384
8.4303
8.53659
8.64608
8.73765
8.82013
8.90298
8.97124
9.03161
9.09114
9.1397
9.1824
9.22755
9.2791
9.32297
9.36274
9.40311
9.43671
9.46705
9.49781
9.52358
9.54711
9.57085
9.58891
9.60266
9.61481
9.62685
9.6367
9.64526
9.6535
9.66005
9.66551
9.67052
9.67436
9.67736
9.68007
9.68274
9.68475
9.6862
9.6873
9.68805
9.68851
9.68877
9.68892
9.68904
9.68909
4.75582
4.76512
4.78519
4.81949
4.87506
4.96593
5.12032
5.38832
5.80208
6.13231
6.43373
6.77282
7.03618
7.27426
7.53762
7.74565
7.9382
8.15195
8.30307
8.41411
8.51756
8.63279
8.72344
8.80464
8.89184
8.95932
9.01849
9.08061
9.12797
9.1684
9.21313
9.26899
9.31315
9.35267
9.39545
9.42884
9.45881
9.49129
9.51692
9.54037
9.56592
9.58393
9.59697
9.60868
9.6212
9.63087
9.63922
9.64781
9.65424
9.65953
9.66468
9.66839
9.6712
9.67381
9.67661
9.67859
9.67996
9.68102
9.68171
9.68209
9.68227
9.68239
9.68248
9.68252
4.62138
4.62927
4.64638
4.67582
4.72422
4.80555
4.95125
5.22887
5.71471
6.05345
6.35476
6.7301
6.99197
7.226
7.51323
7.71865
7.90899
8.14657
8.29631
8.3993
8.49831
8.62226
8.71068
8.78931
8.88292
8.94865
9.00568
9.07184
9.11737
9.15464
9.19835
9.26036
9.30417
9.34276
9.38896
9.42163
9.45072
9.48566
9.51073
9.53373
9.56187
9.57962
9.59164
9.60274
9.61605
9.62542
9.63343
9.64255
9.64878
9.65382
9.65923
9.66277
9.66532
9.6678
9.67083
9.67275
9.67403
9.67505
9.67567
9.67598
9.67607
9.67614
9.67621
9.67624
4.49218
4.49862
4.51263
4.5369
4.5773
4.64699
4.77889
5.05955
5.64305
5.98107
6.27326
6.69842
6.95194
7.17554
7.49653
7.69404
7.87724
8.14853
8.29363
8.38547
8.47788
8.61506
8.69928
8.77344
8.87665
8.93916
8.9927
9.06513
9.10791
9.14095
9.18274
9.25358
9.29601
9.33266
9.38385
9.41502
9.44251
9.48107
9.50499
9.52696
9.55885
9.57595
9.58663
9.59689
9.61145
9.62031
9.6278
9.63776
9.64365
9.64833
9.65416
9.65747
9.65971
9.66202
9.66539
9.66723
9.66837
9.66937
9.66992
9.67015
9.67014
9.67017
9.67022
9.67024
4.36815
4.37313
4.38398
4.40287
4.43465
4.49076
4.60308
4.87525
5.59267
5.91525
6.18549
6.68082
6.91587
7.1201
7.48969
7.67158
7.84036
8.15973
8.295
8.37219
8.45504
8.6121
8.68911
8.75611
8.87367
8.93074
8.97889
9.0609
9.09957
9.12721
9.16567
9.2492
9.28863
9.32193
9.38044
9.40897
9.43384
9.47777
9.49964
9.51976
9.55704
9.57292
9.58186
9.59097
9.60746
9.61553
9.62224
9.63348
9.63884
9.643
9.6495
9.65249
9.65434
9.6564
9.6603
9.662
9.66297
9.66397
9.66444
9.6646
9.66446
9.66446
9.6645
9.66451
4.24921
4.25273
4.26041
4.27383
4.29659
4.33756
4.42415
4.66891
5.57119
5.85584
6.08634
6.68159
6.88347
7.0559
7.49584
7.65098
7.79492
8.18288
8.30024
8.35912
8.42818
8.61467
8.68007
8.73612
8.8749
8.92329
8.96339
9.05979
9.09235
9.11335
9.14629
9.24798
9.28199
9.30997
9.3792
9.40344
9.42427
9.4761
9.49465
9.51171
9.55677
9.57049
9.57729
9.58481
9.60423
9.61104
9.61662
9.62979
9.63431
9.63774
9.64529
9.64779
9.64919
9.65091
9.65559
9.65704
9.65781
9.65885
9.65922
9.65932
9.65903
9.659
9.65902
9.65903
4.13526
4.13734
4.14188
4.14985
4.16344
4.18824
4.24327
4.43094
5.58884
5.80238
5.96897
6.70664
6.8543
6.97797
7.51932
7.63197
7.73638
8.22175
8.30887
8.34598
8.39524
8.62462
8.672
8.7119
8.88167
8.91668
8.94508
9.06267
9.08615
9.09935
9.12352
9.25101
9.27601
9.29598
9.3808
9.39836
9.41319
9.47657
9.48997
9.50228
9.55844
9.5686
9.57287
9.57819
9.60191
9.60683
9.61077
9.62679
9.63006
9.63245
9.64157
9.64338
9.64425
9.64548
9.65128
9.65235
9.65286
9.65399
9.65425
9.65429
9.65381
9.65377
9.65378
9.65379
4.02617
4.02685
4.02835
4.03098
4.03547
4.04374
4.0628
4.14853
5.6591
5.75391
5.82446
6.76395
6.82776
6.87983
7.56601
7.61426
7.65886
8.28144
8.31995
8.33273
8.35356
8.64442
8.66471
8.68138
8.89576
8.91074
8.92254
9.07074
9.08081
9.08535
9.0959
9.2597
9.27057
9.27893
9.38614
9.39365
9.39985
9.47984
9.48555
9.49078
9.56264
9.56712
9.56859
9.57081
9.60076
9.60286
9.60449
9.62464
9.62604
9.62702
9.63843
9.6392
9.6395
9.64002
9.64742
9.64789
9.64808
9.6494
9.6495
9.6495
9.64879
9.64877
9.64877
9.64878
)
;

boundaryField
{
    left
    {
        type            zeroGradient;
    }
    right
    {
        type            zeroGradient;
    }
    interface
    {
        type            fixedValue;
        value           nonuniform List<scalar> 
64
(
3.97282
3.97282
3.97282
3.97282
3.97282
3.97282
3.97282
3.97282
5.73085
5.73085
5.73085
6.8151
6.8151
6.8151
7.6057
7.6057
7.6057
8.32604
8.32604
8.32604
8.32604
8.66124
8.66124
8.66124
8.90792
8.90792
8.90792
9.07834
9.07834
9.07834
9.07834
9.26798
9.26798
9.26798
9.39138
9.39138
9.39138
9.4834
9.4834
9.4834
9.56648
9.56648
9.56648
9.56648
9.60093
9.60093
9.60093
9.62408
9.62408
9.62408
9.63717
9.63717
9.63717
9.63717
9.64572
9.64572
9.64572
9.64718
9.64718
9.64718
9.64632
9.64632
9.64632
9.64632
)
;
    }
    bottom
    {
        type            fixedValue;
        value           uniform 10;
    }
    defaultFaces
    {
        type            empty;
    }
}


// ************************************************************************* //
