/*--------------------------------*- C++ -*----------------------------------*\
| =========                 |                                                 |
| \\      /  F ield         | OpenFOAM: The Open Source CFD Toolbox           |
|  \\    /   O peration     | Version:  5.x                                   |
|   \\  /    A nd           | Web:      www.OpenFOAM.org                      |
|    \\/     M anipulation  |                                                 |
\*---------------------------------------------------------------------------*/
FoamFile
{
    version     2.0;
    format      ascii;
    class       volScalarField;
    location    "7.9";
    object      gradTy;
}
// * * * * * * * * * * * * * * * * * * * * * * * * * * * * * * * * * * * * * //

dimensions      [0 -1 0 1 0 0 0];

internalField   nonuniform List<scalar> 
2048
(
-20.1691
-20.0724
-19.8802
-19.5946
-19.2191
-18.7589
-18.2208
-17.613
-16.9457
-16.23
-15.478
-14.7019
-13.9135
-13.1242
-12.344
-11.5815
-10.8441
-10.1374
-9.4655
-8.83118
-8.23596
-7.68027
-7.16368
-6.68511
-6.24298
-5.83536
-5.46015
-5.11513
-4.79812
-4.50698
-4.2397
-3.99444
-3.76952
-3.56346
-3.3749
-3.20266
-3.04566
-2.90291
-2.77351
-2.65658
-2.55129
-2.45684
-2.37244
-2.29732
-2.23071
-2.17188
-2.12012
-2.07475
-2.03513
-2.00066
-1.97079
-1.945
-1.92284
-1.90387
-1.88773
-1.87408
-1.86263
-1.85314
-1.84538
-1.83917
-1.83438
-1.83088
-1.8286
-1.82747
-20.2472
-20.1497
-19.9557
-19.6672
-19.2877
-18.822
-18.277
-17.6612
-16.9848
-16.2595
-15.4975
-14.7117
-13.9143
-13.1168
-12.3295
-11.5613
-10.8193
-10.1092
-9.43509
-8.79955
-8.20397
-7.64862
-7.13292
-6.65563
-6.21504
-5.80913
-5.4357
-5.09246
-4.77717
-4.48765
-4.22187
-3.97796
-3.75426
-3.54927
-3.36167
-3.1903
-3.0341
-2.89209
-2.76339
-2.64713
-2.5425
-2.44869
-2.36491
-2.2904
-2.22439
-2.16613
-2.11492
-2.07006
-2.03093
-1.99691
-1.96745
-1.94204
-1.92021
-1.90155
-1.88568
-1.87227
-1.86102
-1.8517
-1.84409
-1.838
-1.8333
-1.82987
-1.82763
-1.82652
-20.3958
-20.2968
-20.0995
-19.8057
-19.4184
-18.9424
-18.3844
-17.7531
-17.0593
-16.3153
-15.5343
-14.7299
-13.9152
-13.1021
-12.3014
-11.5221
-10.7714
-10.0551
-9.3768
-8.73907
-8.14293
-7.58834
-7.07441
-6.59964
-6.16206
-5.75945
-5.38944
-5.04962
-4.73762
-4.45118
-4.18824
-3.94689
-3.72547
-3.52251
-3.33673
-3.16699
-3.01227
-2.87166
-2.74426
-2.62927
-2.52587
-2.43326
-2.35067
-2.27732
-2.21244
-2.15527
-2.10509
-2.06122
-2.02301
-1.98984
-1.96117
-1.93647
-1.91528
-1.89719
-1.88183
-1.86886
-1.858
-1.849
-1.84166
-1.8358
-1.83127
-1.82797
-1.82582
-1.82475
-20.6064
-20.5053
-20.3037
-20.0027
-19.6048
-19.1143
-18.5378
-17.8842
-17.1652
-16.3942
-15.5857
-14.7545
-13.9148
-13.0795
-12.2597
-11.4648
-10.702
-9.97689
-9.29304
-8.65247
-8.0558
-7.50254
-6.99137
-6.52035
-6.08718
-5.68937
-5.32429
-4.98937
-4.68207
-4.40003
-4.1411
-3.90335
-3.68513
-3.485
-3.30174
-3.13427
-2.98162
-2.84293
-2.71737
-2.60414
-2.50246
-2.41155
-2.33064
-2.25893
-2.19564
-2.14001
-2.09131
-2.04883
-2.01191
-1.97995
-1.95237
-1.92867
-1.90839
-1.8911
-1.87645
-1.86411
-1.85379
-1.84525
-1.83829
-1.83274
-1.82846
-1.82534
-1.8233
-1.8223
-20.8718
-20.7684
-20.5618
-20.2523
-19.8416
-19.3331
-18.7331
-18.051
-17.2994
-16.4934
-15.6492
-14.7835
-13.9118
-13.0481
-12.2041
-11.3896
-10.6118
-9.87607
-9.18558
-8.54188
-7.94502
-7.39388
-6.88654
-6.42055
-5.9932
-5.60161
-5.2429
-4.91424
-4.61294
-4.33647
-4.08259
-3.84934
-3.63509
-3.43844
-3.25827
-3.09356
-2.94346
-2.80713
-2.68382
-2.57278
-2.47324
-2.38445
-2.30562
-2.23597
-2.1747
-2.12102
-2.07416
-2.03343
-1.99813
-1.96767
-1.94147
-1.91903
-1.89987
-1.88359
-1.86982
-1.85825
-1.8486
-1.84063
-1.83415
-1.82899
-1.82501
-1.82211
-1.82022
-1.81929
-21.1853
-21.0798
-20.8681
-20.5496
-20.1246
-19.5952
-18.9673
-18.2507
-17.4593
-16.6102
-15.7224
-14.8146
-13.9043
-13.0066
-12.134
-11.2965
-10.5013
-9.75349
-9.05576
-8.40905
-7.81264
-7.26463
-6.76235
-6.30276
-5.88261
-5.49864
-5.14766
-4.82656
-4.53243
-4.26259
-4.01467
-3.78668
-3.57701
-3.38437
-3.20771
-3.04617
-2.89896
-2.76535
-2.64463
-2.5361
-2.43905
-2.35273
-2.27637
-2.20916
-2.15026
-2.09887
-2.0542
-2.01552
-1.98214
-1.95344
-1.92886
-1.90787
-1.89003
-1.87492
-1.86219
-1.85152
-1.84264
-1.83533
-1.8294
-1.82468
-1.82105
-1.81841
-1.81669
-1.81584
-21.541
-21.4337
-21.2175
-20.8903
-20.4503
-19.898
-19.2382
-18.4811
-17.6426
-16.7425
-15.803
-14.8459
-13.8905
-12.9537
-12.0486
-11.1852
-10.3707
-9.60979
-8.90467
-8.25544
-7.66045
-7.11682
-6.62102
-6.16924
-5.7577
-5.38271
-5.04074
-4.72842
-4.44257
-4.18031
-3.93914
-3.71703
-3.51243
-3.32417
-3.15135
-2.99325
-2.84919
-2.71854
-2.60067
-2.49493
-2.40065
-2.31711
-2.24354
-2.17908
-2.12289
-2.0741
-2.03191
-1.99555
-1.96434
-1.93763
-1.91486
-1.89552
-1.87915
-1.86535
-1.85377
-1.8441
-1.83609
-1.82951
-1.82419
-1.81997
-1.81672
-1.81437
-1.81283
-1.81208
-21.933
-21.8247
-21.6054
-21.2706
-20.816
-20.2394
-19.5442
-18.7409
-17.8476
-16.8881
-15.8888
-14.8748
-13.8685
-12.8879
-11.9467
-11.055
-10.2199
-9.44542
-8.73318
-8.08233
-7.49008
-6.95235
-6.46455
-6.02208
-5.62055
-5.25585
-4.92414
-4.62173
-4.3452
-4.0914
-3.85767
-3.64194
-3.44275
-3.2591
-3.09032
-2.93582
-2.79508
-2.66758
-2.55274
-2.44999
-2.35871
-2.27821
-2.2077
-2.1463
-2.09311
-2.04721
-2.00775
-1.97395
-1.94511
-1.92057
-1.89979
-1.88224
-1.86748
-1.8551
-1.84476
-1.83618
-1.8291
-1.82331
-1.81865
-1.81496
-1.81213
-1.81008
-1.80875
-1.80809
-22.3559
-22.2478
-22.0274
-21.6873
-21.2195
-20.6183
-19.8846
-19.029
-18.0728
-17.045
-15.9772
-14.8992
-13.8362
-12.8075
-11.8274
-10.9057
-10.0489
-9.26076
-8.54205
-7.8909
-7.30305
-6.77298
-6.29487
-5.86323
-5.47308
-5.11994
-4.79964
-4.50825
-4.242
-3.99748
-3.77178
-3.56279
-3.36921
-3.19029
-3.0256
-2.87479
-2.73747
-2.61321
-2.50154
-2.40193
-2.31382
-2.23657
-2.16937
-2.1113
-2.06138
-2.01862
-1.98212
-1.95108
-1.92478
-1.90258
-1.88392
-1.86829
-1.85523
-1.84437
-1.83535
-1.82792
-1.82182
-1.81687
-1.81289
-1.80976
-1.80737
-1.80564
-1.80452
-1.80396
-22.8041
-22.6978
-22.4793
-22.1375
-21.6593
-21.0341
-20.2592
-19.3452
-18.3172
-17.2112
-16.0659
-14.9166
-13.7914
-12.7111
-11.6897
-10.7366
-9.85774
-9.05612
-8.33199
-7.68224
-7.10083
-6.58042
-6.1138
-5.69453
-5.31708
-4.97666
-4.66888
-4.38952
-4.13451
-3.90002
-3.68285
-3.48084
-3.29292
-3.11871
-2.95809
-2.81095
-2.67708
-2.55612
-2.44767
-2.35129
-2.26648
-2.19266
-2.12901
-2.07452
-2.02811
-1.98871
-1.95538
-1.92727
-1.90366
-1.88392
-1.86749
-1.85387
-1.84261
-1.83333
-1.8257
-1.81945
-1.81437
-1.81028
-1.80703
-1.80448
-1.80254
-1.80114
-1.80023
-1.79978
-23.272
-23.1698
-22.957
-22.6183
-22.1342
-21.487
-20.6689
-19.6895
-18.5796
-17.3847
-16.1524
-14.9243
-13.7321
-12.5971
-11.5328
-10.5476
-9.64638
-8.8318
-8.10364
-7.45744
-6.8849
-6.37639
-5.92313
-5.51773
-5.15418
-4.82756
-4.5333
-4.26697
-4.0241
-3.80039
-3.59217
-3.39723
-3.21488
-3.04521
-2.88851
-2.74498
-2.61453
-2.49688
-2.39168
-2.29856
-2.21714
-2.14688
-2.08699
-2.03634
-1.99368
-1.95786
-1.92785
-1.90281
-1.88201
-1.86483
-1.85073
-1.83919
-1.8298
-1.82214
-1.81593
-1.8109
-1.80687
-1.80366
-1.80114
-1.79918
-1.79769
-1.79663
-1.79594
-1.79559
-23.754
-23.6585
-23.4565
-23.1272
-22.6433
-21.9779
-21.115
-20.0629
-18.8594
-17.5632
-16.2337
-14.9196
-13.6561
-12.4644
-11.3561
-10.3384
-9.41501
-8.58811
-7.85759
-7.21758
-6.65675
-6.16258
-5.72458
-5.33448
-4.98591
-4.674
-4.3942
-4.14181
-3.91203
-3.69984
-3.50093
-3.313
-3.13595
-2.97052
-2.81751
-2.67745
-2.55038
-2.436
-2.33403
-2.24417
-2.16615
-2.09959
-2.04368
-1.9971
-1.95842
-1.92636
-1.89983
-1.87796
-1.86006
-1.84552
-1.8338
-1.82441
-1.81692
-1.81094
-1.80616
-1.80237
-1.79939
-1.79708
-1.79529
-1.79393
-1.7929
-1.79217
-1.7917
-1.79146
-24.2446
-24.1589
-23.9736
-23.6617
-23.1863
-22.5081
-21.6
-20.4666
-19.1555
-17.7442
-16.3068
-14.8996
-13.5612
-12.3116
-11.1593
-10.1093
-9.16395
-8.32531
-7.59435
-6.96373
-6.41795
-5.94072
-5.51989
-5.14638
-4.81363
-4.51722
-4.25268
-4.01511
-3.79938
-3.59956
-3.41026
-3.22907
-3.05685
-2.89524
-2.74559
-2.60885
-2.48508
-2.37392
-2.27514
-2.18849
-2.11383
-2.05105
-1.99935
-1.95712
-1.92264
-1.8945
-1.87156
-1.85295
-1.83801
-1.82616
-1.81687
-1.80967
-1.80413
-1.79984
-1.7965
-1.79394
-1.79202
-1.7906
-1.78956
-1.78878
-1.78821
-1.78781
-1.78755
-1.78742
-24.7381
-24.6657
-24.5038
-24.2191
-23.7628
-23.08
-22.1273
-20.9028
-19.467
-17.9248
-16.3683
-14.8611
-13.4455
-12.1382
-10.9421
-9.86055
-8.89374
-8.0436
-7.31427
-6.697
-6.1702
-5.7126
-5.31074
-4.95495
-4.6386
-4.35827
-4.1097
-3.88776
-3.68715
-3.50067
-3.32123
-3.14625
-2.97819
-2.81985
-2.67316
-2.53956
-2.41906
-2.31105
-2.21538
-2.13183
-2.06042
-2.0015
-1.95426
-1.91668
-1.88662
-1.86254
-1.84329
-1.82798
-1.81603
-1.80689
-1.80006
-1.79509
-1.79152
-1.78892
-1.78702
-1.78568
-1.7848
-1.78428
-1.78398
-1.78379
-1.78367
-1.78358
-1.78354
-1.78351
-25.2289
-25.1735
-25.0428
-24.7964
-24.3726
-23.6964
-22.7017
-21.3744
-19.7923
-18.1012
-16.4145
-14.8008
-13.307
-11.9435
-10.7048
-9.59308
-8.6052
-7.74301
-7.0175
-6.41853
-5.91538
-5.48002
-5.09879
-4.76167
-4.4619
-4.19803
-3.96608
-3.76044
-3.57615
-3.40424
-3.2349
-3.06525
-2.90043
-2.74474
-2.60049
-2.4699
-2.35268
-2.24772
-2.15509
-2.07449
-2.00611
-1.95107
-1.90862
-1.87604
-1.8506
-1.83072
-1.81522
-1.80322
-1.79426
-1.78786
-1.7835
-1.78077
-1.77919
-1.77829
-1.77779
-1.77764
-1.7778
-1.77816
-1.77859
-1.77899
-1.77929
-1.77952
-1.77968
-1.77975
-25.7114
-25.6769
-25.5856
-25.3904
-25.0153
-24.361
-23.3292
-21.8855
-20.1293
-18.2691
-16.4415
-14.7148
-13.1438
-11.7279
-10.4479
-9.30802
-8.29957
-7.42331
-6.70384
-6.12959
-5.65562
-5.24478
-4.88566
-4.56798
-4.28443
-4.03725
-3.82251
-3.63364
-3.46706
-3.3114
-3.15238
-2.98663
-2.82391
-2.67019
-2.52777
-2.40011
-2.28629
-2.18423
-2.09456
-2.01675
-1.951
-1.89986
-1.86264
-1.83547
-1.81482
-1.79923
-1.78752
-1.7788
-1.77282
-1.76916
-1.76725
-1.76677
-1.76722
-1.76802
-1.76887
-1.76987
-1.77104
-1.77228
-1.77344
-1.7744
-1.77511
-1.77563
-1.77599
-1.77617
-26.1804
-26.1707
-26.1273
-25.9973
-25.6903
-25.0778
-24.0181
-22.4415
-20.474
-18.4226
-16.4457
-14.5991
-12.9544
-11.4924
-10.172
-9.007
-7.97872
-7.08375
-6.37257
-5.83159
-5.39353
-5.00862
-4.67286
-4.37536
-4.10684
-3.87647
-3.67961
-3.50756
-3.36037
-3.2233
-3.07489
-2.91077
-2.74878
-2.59645
-2.45504
-2.33036
-2.22025
-2.12082
-2.03411
-1.95891
-1.89514
-1.84788
-1.81648
-1.79524
-1.7795
-1.76826
-1.76038
-1.75483
-1.75181
-1.75088
-1.75139
-1.75318
-1.75569
-1.75816
-1.76029
-1.76238
-1.76454
-1.76665
-1.76854
-1.77005
-1.77115
-1.77194
-1.77249
-1.77277
-26.6309
-26.6497
-26.6625
-26.6127
-26.3962
-25.8515
-24.7787
-23.0501
-20.8205
-18.5549
-16.424
-14.4487
-12.7371
-11.2392
-9.8775
-8.6921
-7.6455
-6.7228
-6.02221
-5.52626
-5.13232
-4.77304
-4.46177
-4.18539
-3.92947
-3.71609
-3.53803
-3.38208
-3.25633
-3.14125
-3.00385
-2.83781
-2.67502
-2.52377
-2.38217
-2.26078
-2.15497
-2.05765
-1.97401
-1.90133
-1.83845
-1.79502
-1.77031
-1.75566
-1.74481
-1.73796
-1.73394
-1.7314
-1.73128
-1.73309
-1.73596
-1.74002
-1.74464
-1.74878
-1.75208
-1.75518
-1.75833
-1.76131
-1.76391
-1.76595
-1.7674
-1.76845
-1.76918
-1.76956
-27.0584
-27.1089
-27.1859
-27.2314
-27.1306
-26.6866
-25.6241
-23.7223
-21.1586
-18.6574
-16.3751
-14.2574
-12.4909
-10.9723
-9.56406
-8.36583
-7.30436
-6.33761
-5.6503
-5.2158
-4.87616
-4.53907
-4.25358
-3.99998
-3.75218
-3.55634
-3.39863
-3.25665
-3.15491
-3.06677
-2.94103
-2.76745
-2.60239
-2.4525
-2.30884
-2.19142
-2.09098
-1.99477
-1.91455
-1.84447
-1.78072
-1.74109
-1.72433
-1.7171
-1.71091
-1.70846
-1.70836
-1.70854
-1.71128
-1.71587
-1.72096
-1.72731
-1.73416
-1.73996
-1.74424
-1.74829
-1.7524
-1.75625
-1.75958
-1.76213
-1.76388
-1.76515
-1.76607
-1.76656
-27.4591
-27.5438
-27.6917
-27.8473
-27.8896
-27.5871
-26.5707
-24.4739
-21.472
-18.7194
-16.3012
-14.0166
-12.2145
-10.6986
-9.22973
-8.03118
-6.96231
-5.92326
-5.25301
-4.90317
-4.63064
-4.30681
-4.0492
-3.82165
-3.57409
-3.39727
-3.26267
-3.1301
-3.05569
-3.0017
-2.88878
-2.69879
-2.53045
-2.3833
-2.2344
-2.12228
-2.02906
-1.932
-1.85599
-1.78901
-1.72154
-1.68574
-1.67876
-1.68003
-1.67785
-1.67985
-1.68385
-1.68625
-1.69183
-1.69932
-1.70641
-1.71507
-1.72429
-1.73175
-1.73678
-1.74167
-1.74677
-1.75148
-1.75555
-1.7586
-1.76057
-1.76205
-1.76316
-1.76377
-27.8295
-27.9502
-28.1744
-28.4535
-28.6677
-28.556
-27.6384
-25.3286
-21.7348
-18.7286
-16.2101
-13.714
-11.9071
-10.4295
-8.86937
-7.6915
-6.63041
-5.47158
-4.82488
-4.59242
-4.40338
-4.07477
-3.84921
-3.65404
-3.39316
-3.23879
-3.1323
-3.00035
-2.95775
-2.9483
-2.85037
-2.6299
-2.45847
-2.31734
-2.15768
-2.05331
-1.97038
-1.8688
-1.79862
-1.73603
-1.66017
-1.62847
-1.63393
-1.64507
-1.6456
-1.65217
-1.66063
-1.66445
-1.67294
-1.68353
-1.69224
-1.70327
-1.71511
-1.72425
-1.72965
-1.7353
-1.74143
-1.74702
-1.75184
-1.75538
-1.75748
-1.75913
-1.76045
-1.76118
-28.1671
-28.3245
-28.6285
-29.0423
-29.4569
-29.5938
-28.8511
-26.3222
-21.9062
-18.6704
-16.1194
-13.3299
-11.5676
-10.183
-8.47232
-7.35046
-6.32604
-4.96931
-4.35846
-4.28912
-4.20505
-3.83876
-3.65376
-3.50267
-3.20554
-3.08062
-3.01104
-2.86402
-2.85955
-2.90939
-2.83042
-2.55735
-2.38547
-2.25676
-2.07674
-1.98439
-1.9168
-1.80406
-1.74269
-1.68714
-1.59541
-1.56858
-1.59025
-1.61309
-1.61393
-1.62544
-1.63904
-1.64296
-1.65459
-1.66868
-1.67838
-1.69187
-1.70669
-1.7176
-1.7228
-1.72913
-1.7364
-1.74285
-1.74846
-1.75249
-1.75459
-1.75639
-1.75793
-1.75881
-28.4702
-28.664
-29.0491
-29.6055
-30.247
-30.6973
-30.2356
-27.5092
-21.9228
-18.5288
-16.0618
-12.8338
-11.1954
-9.98771
-8.01886
-7.01194
-6.07618
-4.39543
-3.84432
-4.00074
-4.05061
-3.59043
-3.46258
-3.37611
-3.00457
-2.9224
-2.90469
-2.71581
-2.75884
-2.88834
-2.83566
-2.47537
-2.31024
-2.20521
-1.98836
-1.91536
-1.87117
-1.73573
-1.68847
-1.64488
-1.52536
-1.50521
-1.54832
-1.58524
-1.58232
-1.59961
-1.61962
-1.62144
-1.63672
-1.65502
-1.66464
-1.68081
-1.69913
-1.71195
-1.71611
-1.72312
-1.73169
-1.73897
-1.74544
-1.74997
-1.75186
-1.7538
-1.75561
-1.75666
-28.7377
-28.9667
-29.4317
-30.1345
-31.025
-31.8582
-31.8204
-28.972
-21.6882
-18.2867
-16.093
-12.1773
-10.7897
-9.88762
-7.47514
-6.67991
-5.92212
-3.71713
-3.27126
-3.73703
-3.96124
-3.315
-3.275
-3.28763
-2.77929
-2.76366
-2.82249
-2.54753
-2.65264
-2.88916
-2.87593
-2.3747
-2.2314
-2.16865
-1.88739
-1.84603
-1.83797
-1.66031
-1.63621
-1.61314
-1.44698
-1.43735
-1.50892
-1.56319
-1.54979
-1.57462
-1.60313
-1.59933
-1.6193
-1.64297
-1.65077
-1.67
-1.69254
-1.70755
-1.7094
-1.71721
-1.72734
-1.73536
-1.74279
-1.74787
-1.74926
-1.75135
-1.75349
-1.75474
-28.9694
-29.2312
-29.7725
-30.6207
-31.7753
-33.0606
-33.6319
-30.8358
-21.058
-17.928
-16.3021
-11.2847
-10.3505
-9.94953
-6.78601
-6.35836
-5.92589
-2.88418
-2.62731
-3.51004
-3.96687
-2.9883
-3.09009
-3.25747
-2.51234
-2.60401
-2.77875
-2.34682
-2.53731
-2.9162
-2.96556
-2.24104
-2.14755
-2.15652
-1.76575
-1.77623
-1.82394
-1.57214
-1.58612
-1.59775
-1.35565
-1.36392
-1.47307
-1.54919
-1.51472
-1.55035
-1.59076
-1.57574
-1.60227
-1.63313
-1.63633
-1.65933
-1.68706
-1.70475
-1.70239
-1.71133
-1.72343
-1.732
-1.74052
-1.74627
-1.74672
-1.74903
-1.75157
-1.75305
-29.1657
-29.4571
-30.0689
-31.0563
-32.4807
-34.28
-35.689
-33.2869
-19.8194
-17.4402
-16.8258
-10.0402
-9.87899
-10.2727
-5.86528
-6.05123
-6.17891
-1.82088
-1.90174
-3.33375
-4.10969
-2.57262
-2.90696
-3.31589
-2.17701
-2.44333
-2.7949
-2.09532
-2.40893
-2.97378
-3.12544
-2.05291
-2.05751
-2.18312
-1.61105
-1.70591
-1.83919
-1.46244
-1.53847
-1.60732
-1.24437
-1.28401
-1.44198
-1.54643
-1.47452
-1.52671
-1.58427
-1.54923
-1.58561
-1.62639
-1.62067
-1.64871
-1.68282
-1.70403
-1.69463
-1.70544
-1.72007
-1.72882
-1.73864
-1.74529
-1.74414
-1.74683
-1.74987
-1.75159
-29.3277
-29.645
-30.3191
-31.4345
-33.1226
-35.4815
-37.9927
-36.6002
-17.6644
-16.8179
-17.866
-8.27008
-9.37899
-11.0017
-4.58286
-5.76259
-6.8133
-0.41528
-1.0887
-3.22275
-4.44887
-2.01145
-2.72526
-3.50721
-1.7334
-2.28214
-2.90231
-1.76612
-2.26407
-3.06526
-3.38559
-1.77878
-1.96074
-2.2696
-1.40477
-1.63528
-1.89843
-1.31796
-1.49356
-1.65428
-1.10273
-1.19719
-1.41698
-1.55928
-1.42526
-1.50367
-1.58621
-1.51768
-1.56932
-1.62407
-1.60277
-1.63806
-1.67994
-1.70606
-1.68549
-1.69952
-1.7174
-1.72572
-1.73717
-1.74506
-1.74138
-1.74473
-1.74839
-1.75038
-29.4569
-29.7958
-30.5229
-31.75
-33.6827
-36.6193
-40.5119
-41.1741
-14.1552
-16.0696
-19.7121
-5.7201
-8.85912
-12.3425
-2.74827
-5.49687
-8.01623
1.4953
-0.193077
-3.18964
-5.06677
-1.22266
-2.54597
-3.89478
-1.12327
-2.12219
-3.14561
-1.32045
-2.10109
-3.19158
-3.78879
-1.37348
-1.85795
-2.44625
-1.11984
-1.5651
-2.02264
-1.11931
-1.45183
-1.75624
-0.915574
-1.10405
-1.39933
-1.59375
-1.36121
-1.48133
-1.60019
-1.47793
-1.55353
-1.62797
-1.58117
-1.62738
-1.67849
-1.71179
-1.67402
-1.69357
-1.71566
-1.72255
-1.73609
-1.74581
-1.73821
-1.74273
-1.74714
-1.74939
-29.5555
-29.9113
-30.6807
-31.9997
-34.1445
-37.6382
-43.1619
-47.576
-8.67986
-15.2255
-22.7685
-2.0268
-8.33608
-14.5824
-0.0900405
-5.25955
-10.0477
4.14286
0.760745
-3.24054
-6.07694
-0.0900141
-2.37252
-4.5672
-0.263716
-1.96731
-3.5869
-0.703392
-1.92226
-3.34894
-4.39513
-0.773544
-1.75191
-2.7554
-0.717632
-1.49704
-2.2411
-0.838864
-1.41398
-1.93763
-0.661229
-1.00703
-1.38989
-1.65802
-1.27415
-1.46006
-1.63125
-1.42544
-1.53852
-1.6406
-1.55373
-1.61682
-1.67844
-1.72249
-1.65887
-1.68771
-1.71512
-1.71905
-1.73535
-1.74781
-1.73431
-1.74085
-1.7461
-1.7486
-29.6256
-29.9939
-30.7946
-32.1829
-34.4953
-38.477
-45.7758
-56.6005
-0.398809
-14.3492
-27.586
3.31748
-7.83932
-18.1138
3.76916
-5.05812
-13.2621
7.85219
1.71634
-3.36816
-7.63441
1.54707
-2.21235
-5.64564
0.960687
-1.82465
-4.31062
0.161582
-1.73692
-3.52545
-5.28782
0.108367
-1.64861
-3.25477
-0.14426
-1.43423
-2.5938
-0.438205
-1.38119
-2.23169
-0.309282
-0.911549
-1.38858
-1.76317
-1.1527
-1.44065
-1.68617
-1.35385
-1.52485
-1.66529
-1.51739
-1.60676
-1.67954
-1.7399
-1.63814
-1.68215
-1.71614
-1.71483
-1.73487
-1.75144
-1.7292
-1.7391
-1.74526
-1.74796
-29.6699
-30.0461
-30.867
-32.3009
-34.7279
-39.0758
-48.0656
-69.3387
11.8206
-13.5521
-34.8982
11.006
-7.41738
-23.462
9.34178
-4.90364
-18.1333
13.0696
2.56829
-3.54165
-9.9483
3.90569
-2.07889
-7.29233
2.70716
-1.70633
-5.42922
1.37925
-1.5658
-3.69652
-6.58029
1.3902
-1.55878
-4.02136
0.673798
-1.38198
-3.13422
0.134914
-1.3554
-2.68278
0.182118
-0.827571
-1.39359
-1.92399
-0.981384
-1.42453
-1.77399
-1.25442
-1.5135
-1.70646
-1.46797
-1.59801
-1.68124
-1.76636
-1.60926
-1.6773
-1.71915
-1.70936
-1.7345
-1.75716
-1.72222
-1.73755
-1.74454
-1.7474
-29.691
-30.071
-30.9016
-32.3577
-34.8419
-39.3873
-49.5746
-87.2629
29.4796
-13.0124
-45.6619
21.9651
-7.14608
-31.3156
17.3086
-4.81278
-25.2831
20.397
3.14003
-3.6928
-13.2973
7.27347
-1.99418
-9.72015
5.18534
-1.63162
-7.0895
3.09052
-1.44703
-3.81881
-8.42489
3.22828
-1.49984
-5.15581
1.83461
-1.3489
-3.93258
0.949848
-1.33981
-3.34921
0.869299
-0.77181
-1.40048
-2.16037
-0.739826
-1.41429
-1.90666
-1.11564
-1.50628
-1.76997
-1.40001
-1.59218
-1.68273
-1.8052
-1.56897
-1.67408
-1.72488
-1.70213
-1.73425
-1.76583
-1.7127
-1.73648
-1.74404
-1.74703
)
;

boundaryField
{
    left
    {
        type            calculated;
        value           nonuniform List<scalar> 
32
(
-20.1691
-20.2472
-20.3958
-20.6064
-20.8718
-21.1853
-21.541
-21.933
-22.3559
-22.8041
-23.272
-23.754
-24.2446
-24.7381
-25.2289
-25.7114
-26.1804
-26.6309
-27.0584
-27.4591
-27.8295
-28.1671
-28.4702
-28.7377
-28.9694
-29.1657
-29.3277
-29.4569
-29.5555
-29.6256
-29.6699
-29.691
)
;
    }
    right
    {
        type            calculated;
        value           nonuniform List<scalar> 
32
(
-1.82747
-1.82652
-1.82475
-1.8223
-1.81929
-1.81584
-1.81208
-1.80809
-1.80396
-1.79978
-1.79559
-1.79146
-1.78742
-1.78351
-1.77975
-1.77617
-1.77277
-1.76956
-1.76656
-1.76377
-1.76118
-1.75881
-1.75666
-1.75474
-1.75305
-1.75159
-1.75038
-1.74939
-1.7486
-1.74796
-1.7474
-1.74703
)
;
    }
    interface
    {
        type            calculated;
        value           nonuniform List<scalar> 
64
(
-29.696
-30.077
-30.9099
-32.3714
-34.8696
-39.4666
-50.0644
-97.7323
39.8822
-12.8339
-52.0413
28.3941
-7.05957
-35.9661
21.9874
-4.78577
-29.5157
24.6744
3.32854
-3.75143
-15.2703
9.25048
-1.96739
-11.1594
6.63719
-1.60811
-8.07578
4.0897
-1.4068
-3.86095
-9.50699
4.30857
-1.48076
-5.8292
2.51465
-1.33847
-4.40617
1.42761
-1.33508
-3.74453
1.26988
-0.753579
-1.40366
-2.30029
-0.598611
-1.41106
-1.98592
-1.0348
-1.504
-1.80817
-1.36064
-1.59029
-1.68332
-1.82822
-1.54554
-1.67303
-1.72855
-1.69803
-1.73417
-1.77104
-1.70723
-1.73613
-1.74388
-1.74692
)
;
    }
    bottom
    {
        type            calculated;
        value           nonuniform List<scalar> 
64
(
-20.1487
-20.0523
-19.8605
-19.5757
-19.2013
-18.7425
-18.2061
-17.6005
-16.9355
-16.2224
-15.4729
-14.6992
-13.9133
-13.1261
-12.3477
-11.5868
-10.8505
-10.1447
-9.47339
-8.8394
-8.24428
-7.68851
-7.1717
-6.6928
-6.25027
-5.84221
-5.46653
-5.12106
-4.8036
-4.51203
-4.24437
-3.99875
-3.77352
-3.56717
-3.37836
-3.20589
-3.04868
-2.90574
-2.77615
-2.65905
-2.55359
-2.45898
-2.37441
-2.29913
-2.23236
-2.17338
-2.12148
-2.07597
-2.03623
-2.00164
-1.97166
-1.94578
-1.92352
-1.90448
-1.88827
-1.87456
-1.86306
-1.85351
-1.84572
-1.83948
-1.83466
-1.83115
-1.82885
-1.82772
)
;
    }
    defaultFaces
    {
        type            empty;
    }
}


// ************************************************************************* //
