/*--------------------------------*- C++ -*----------------------------------*\
| =========                 |                                                 |
| \\      /  F ield         | OpenFOAM: The Open Source CFD Toolbox           |
|  \\    /   O peration     | Version:  5.x                                   |
|   \\  /    A nd           | Web:      www.OpenFOAM.org                      |
|    \\/     M anipulation  |                                                 |
\*---------------------------------------------------------------------------*/
FoamFile
{
    version     2.0;
    format      ascii;
    class       volScalarField;
    location    "0.3";
    object      gradTx;
}
// * * * * * * * * * * * * * * * * * * * * * * * * * * * * * * * * * * * * * //

dimensions      [0 -1 0 1 0 0 0];

internalField   nonuniform List<scalar> 
2048
(
0.00180184
0.00534718
0.00878364
0.0120191
0.0149399
0.0174893
0.0195805
0.0211459
0.0221523
0.0225962
0.0225048
0.0219346
0.0209641
0.0196849
0.0181914
0.0165729
0.0149075
0.0132592
0.0116764
0.0101933
0.00883108
0.00760034
0.00650365
0.00553765
0.004695
0.00396594
0.00333947
0.00280428
0.00234929
0.00196406
0.00163902
0.00136554
0.00113599
0.000943694
0.000782879
0.000648585
0.000536584
0.000443288
0.000365669
0.000301178
0.000247674
0.000203367
0.000166761
0.000136609
0.000111877
9.1705e-05
7.53821e-05
6.23191e-05
5.20246e-05
4.40817e-05
3.81231e-05
3.38061e-05
3.07878e-05
2.87094e-05
2.71951e-05
2.58777e-05
2.44472e-05
2.27052e-05
2.05825e-05
1.80684e-05
1.50458e-05
1.12209e-05
6.63355e-06
2.10253e-06
0.00536913
0.0159247
0.026144
0.0357848
0.0445045
0.0521074
0.0583403
0.0630004
0.0659822
0.0672727
0.0669556
0.065204
0.0622582
0.0583969
0.0539062
0.0490548
0.0440767
0.0391615
0.0344524
0.0300485
0.0260107
0.0223686
0.0191278
0.0162768
0.0137926
0.0116454
0.00980187
0.0082281
0.00689101
0.00575954
0.00480527
0.0040027
0.00332926
0.00276528
0.00229373
0.00190001
0.0015717
0.00129825
0.00107078
0.000881791
0.000725015
0.000595197
0.00048795
0.000399621
0.000327174
0.000268094
0.000220299
0.000182065
0.000151957
0.000128761
0.000111406
9.88927e-05
9.02115e-05
8.42942e-05
8.00136e-05
7.62659e-05
7.21337e-05
6.70638e-05
6.09261e-05
5.3778e-05
4.52199e-05
3.36891e-05
1.80106e-05
4.56297e-06
0.00888323
0.0263412
0.0432378
0.0592101
0.0736887
0.0863126
0.0966547
0.104364
0.109252
0.111291
0.110627
0.107562
0.102513
0.0959623
0.0883973
0.0802723
0.0719773
0.0638244
0.0560452
0.048797
0.0421734
0.0362166
0.0309302
0.0262906
0.0222561
0.018775
0.015791
0.0132471
0.0110882
0.00926311
0.00772516
0.0064326
0.00534866
0.00444134
0.00368302
0.00305008
0.00252242
0.00208304
0.0017176
0.00141403
0.00116225
0.000953783
0.000781587
0.000639786
0.000523504
0.0004287
0.000352037
0.000290755
0.000242566
0.000205538
0.000177975
0.000158283
0.000144832
0.000135865
0.000129493
0.000123862
0.000117456
0.000109425
9.96917e-05
8.86382e-05
7.60765e-05
5.85514e-05
2.66177e-05
2.72266e-06
0.0123822
0.0367312
0.0603188
0.0826631
0.102971
0.120695
0.135208
0.14598
0.152719
0.155376
0.154169
0.149555
0.142159
0.132692
0.121866
0.110333
0.0986414
0.0872234
0.0763914
0.0663509
0.0572181
0.0490387
0.0418066
0.0354799
0.0299941
0.0252725
0.0212338
0.017797
0.0148851
0.0124268
0.0103577
0.00862039
0.00716469
0.005947
0.00492983
0.00408121
0.00337401
0.00278529
0.00229577
0.00188923
0.00155209
0.00127302
0.00104254
0.000852781
0.000697211
0.000570422
0.000467951
0.000386122
0.000321896
0.000272721
0.000236368
0.000210731
0.000193622
0.000182615
0.000175052
0.000168308
0.000160289
0.000149863
0.0001369
0.000122023
0.000106363
8.74439e-05
3.6084e-05
-2.10772e-06
0.0158979
0.0471905
0.0775594
0.10641
0.13272
0.155728
0.174561
0.188468
0.197017
0.20013
0.198115
0.19162
0.181523
0.168808
0.154442
0.139292
0.124069
0.109321
0.0954284
0.0826343
0.0710639
0.0607547
0.051681
0.0437751
0.0369441
0.0310827
0.0260822
0.0218366
0.0182465
0.0152207
0.0126775
0.0105448
0.00875949
0.00726729
0.00602163
0.00498293
0.00411769
0.00339768
0.00279916
0.00230223
0.00189025
0.00154929
0.00126777
0.00103604
0.000846124
0.000691408
0.000566452
0.000466787
0.000388736
0.000329238
0.000285631
0.000255397
0.00023586
0.000223956
0.000216235
0.000209286
0.000200484
0.000188495
0.000172922
0.000153916
0.000134297
0.000118034
4.68222e-05
-8.71959e-06
0.0194475
0.0577727
0.0950634
0.130629
0.163209
0.191787
0.215187
0.232365
0.242701
0.246075
0.24291
0.234101
0.220845
0.204455
0.186193
0.167157
0.14823
0.130061
0.113091
0.0975794
0.0836455
0.0713049
0.0605007
0.0511309
0.0430677
0.0361733
0.0303094
0.0253438
0.0211541
0.0176298
0.0146724
0.0121957
0.0101248
0.00839544
0.00695285
0.00575064
0.00474966
0.00391703
0.00322513
0.00265085
0.00217486
0.00178104
0.00145596
0.00118845
0.000969289
0.000790834
0.000646818
0.000532105
0.000442498
0.000374532
0.00032523
0.000291767
0.000271071
0.000259469
0.000252681
0.000246453
0.000237699
0.000225082
0.000207832
0.000184702
0.000159845
0.000148739
5.77431e-05
-1.6894e-05
0.0230322
0.0684878
0.112869
0.155419
0.194628
0.229171
0.25749
0.278149
0.29027
0.293671
0.288931
0.27727
0.26029
0.239707
0.217123
0.193892
0.171062
0.149377
0.129311
0.111125
0.0949109
0.0806469
0.0682326
0.0575219
0.0483463
0.040531
0.033906
0.0283119
0.0236036
0.0196513
0.0163406
0.0135722
0.0112601
0.00933128
0.00772349
0.00638442
0.00527005
0.00434348
0.0035738
0.00293518
0.00240604
0.00196836
0.00160718
0.00131006
0.00106672
0.000868698
0.000709023
0.000582024
0.000483093
0.000408471
0.000354973
0.000319594
0.00029897
0.000288867
0.000284111
0.000279489
0.000271482
0.00025903
0.000241025
0.000213861
0.000182594
0.000178139
6.72416e-05
-2.69897e-05
0.0266374
0.0793027
0.130951
0.180799
0.227084
0.268112
0.301828
0.326268
0.340196
0.343344
0.336504
0.321332
0.299951
0.27457
0.247184
0.219418
0.19248
0.167186
0.14402
0.123216
0.10482
0.0887543
0.0748609
0.0629409
0.0527783
0.0441583
0.0368769
0.0307473
0.0256017
0.0212919
0.0176887
0.0146804
0.0121711
0.0100798
0.00833789
0.00688801
0.00568203
0.00467972
0.00384745
0.00315715
0.00258537
0.00211257
0.00172253
0.00140178
0.0011392
0.000925627
0.000753576
0.000616948
0.000510825
0.000431253
0.000374951
0.000338851
0.000319428
0.000311956
0.000310306
0.000308122
0.00030139
0.000289627
0.000271554
0.000240245
0.000201451
0.000204416
7.32612e-05
-3.97096e-05
0.0302337
0.090142
0.149216
0.206711
0.260612
0.308779
0.348522
0.377154
0.392943
0.395497
0.385913
0.366434
0.339857
0.30899
0.276276
0.243622
0.212377
0.183399
0.15715
0.133807
0.113347
0.0956155
0.0803856
0.0673956
0.0563767
0.0470706
0.0392386
0.0326663
0.027164
0.0225662
0.0187298
0.0155319
0.0128679
0.0106498
0.00880364
0.00726787
0.00599107
0.00493035
0.00404994
0.00331998
0.00271556
0.00221595
0.00180392
0.00146519
0.00118801
0.00096271
0.000781382
0.000637621
0.000526297
0.000443344
0.000385476
0.00034969
0.000332436
0.000328603
0.000331064
0.000332092
0.000327004
0.000316165
0.000298385
0.000262431
0.000214906
0.000225315
7.33391e-05
-5.59422e-05
0.0337768
0.100888
0.167508
0.233013
0.295163
0.351284
0.397869
0.431248
0.448984
0.450525
0.437404
0.412665
0.37997
0.342851
0.304253
0.26636
0.230632
0.197925
0.16864
0.142864
0.120478
0.101233
0.0848211
0.0709076
0.0591666
0.0492943
0.0410171
0.0340934
0.028313
0.0234943
0.0194818
0.0161424
0.0133642
0.011053
0.00913066
0.00753237
0.00620418
0.00510125
0.00418618
0.0034278
0.00280008
0.00228139
0.00185375
0.00150232
0.00121487
0.00098136
0.000793619
0.000645029
0.000530327
0.000445403
0.000387046
0.000352421
0.000338102
0.000338732
0.00034618
0.000351103
0.000347884
0.000337938
0.000320481
0.000278908
0.000221317
0.000238344
6.48762e-05
-7.65289e-05
0.0372086
0.111382
0.185603
0.259482
0.330604
0.395676
0.45015
0.48901
0.508822
0.508825
0.491188
0.460053
0.420186
0.375982
0.33093
0.287467
0.247116
0.210676
0.178438
0.150364
0.126213
0.105626
0.088195
0.0735103
0.0611835
0.0508647
0.0422456
0.0350591
0.0290759
0.0241004
0.0199658
0.0165305
0.0136757
0.0113028
0.00933037
0.0076911
0.00632943
0.00519917
0.00426183
0.00348532
0.00284288
0.0023122
0.00187481
0.00151548
0.00122169
0.000983191
0.000791643
0.000640314
0.000523876
0.00043823
0.000380294
0.000347486
0.000336646
0.000342332
0.000355456
0.00036482
0.000363535
0.00035422
0.000336834
0.000288193
0.000219199
0.000241143
4.56541e-05
-0.00010191
0.0404584
0.12143
0.203213
0.285807
0.366711
0.441942
0.505637
0.550945
0.573012
0.570803
0.547439
0.50856
0.460332
0.408156
0.356085
0.306761
0.261699
0.221571
0.186503
0.156299
0.130568
0.108822
0.0905469
0.0752471
0.0624714
0.0518237
0.0429628
0.035598
0.0294834
0.0244113
0.0202053
0.0167163
0.0138199
0.0114141
0.00941508
0.00775437
0.00637541
0.00523129
0.00428289
0.00349758
0.00284815
0.00231188
0.00187002
0.00150712
0.00121053
0.000969924
0.0007769
0.0006247
0.00050799
0.000422715
0.000365957
0.000335443
0.000328396
0.000339475
0.000358729
0.000372893
0.000373423
0.000364283
0.000346527
0.000288966
0.000207541
0.000231974
1.45214e-05
-0.000131694
0.0434454
0.130802
0.219992
0.311586
0.403156
0.48999
0.564597
0.617625
0.642177
0.636879
0.606284
0.558079
0.500166
0.439094
0.379469
0.324053
0.274255
0.230543
0.192814
0.160676
0.133572
0.110867
0.091927
0.0761702
0.0630809
0.0522182
0.0432109
0.0357477
0.0295684
0.0244554
0.0202248
0.0167209
0.0138147
0.0114018
0.00939744
0.00773271
0.0063509
0.00520494
0.00425547
0.00346969
0.00282017
0.00228404
0.0018424
0.00147975
0.00118349
0.000943312
0.000750866
0.000599441
0.000483747
0.000399793
0.000344836
0.000316937
0.000313782
0.000330321
0.0003559
0.000375002
0.000377021
0.000367446
0.000348824
0.000280215
0.000186135
0.000210245
-2.79185e-05
-0.000164255
0.0460824
0.139248
0.23554
0.336331
0.4395
0.539639
0.627291
0.689712
0.717039
0.707489
0.667796
0.608416
0.53937
0.468468
0.400813
0.339154
0.284676
0.237543
0.197363
0.16352
0.135269
0.111814
0.0923946
0.0763385
0.0630673
0.0520987
0.0430349
0.0355472
0.0293642
0.0242615
0.0200493
0.0165657
0.0136781
0.011281
0.00929001
0.00763657
0.00626459
0.00512734
0.0041856
0.00340667
0.00276318
0.00223222
0.00179489
0.00143584
0.00114262
0.000905087
0.000714995
0.000565777
0.000452224
0.00037041
0.000317769
0.00029268
0.000293325
0.000315126
0.000346951
0.000370896
0.000373855
0.000363146
0.000343284
0.000261373
0.00015583
0.000176982
-7.88491e-05
-0.000196556
0.0482804
0.146502
0.249417
0.359467
0.475178
0.590595
0.693974
0.767996
0.798452
0.783076
0.73197
0.65929
0.577555
0.495913
0.41984
0.351886
0.292869
0.242545
0.200166
0.164869
0.135715
0.111729
0.0920163
0.075816
0.0624897
0.0515175
0.0424803
0.0350358
0.0289044
0.0238583
0.0197033
0.0162717
0.0134278
0.0110666
0.00910498
0.00747601
0.00612482
0.00500545
0.00407908
0.00331339
0.00268124
0.00215981
0.00173035
0.00137776
0.00108992
0.000856911
0.000670686
0.000524899
0.000414464
0.000335492
0.0002856
0.000263434
0.00026762
0.000294231
0.000331959
0.000360425
0.000363552
0.000350995
0.000329872
0.000232421
0.000118654
0.000135106
-0.000133264
-0.000224358
0.0499544
0.152302
0.261162
0.380347
0.509488
0.642426
0.764882
0.853436
0.887433
0.86408
0.798697
0.710317
0.614256
0.521031
0.436275
0.362086
0.29877
0.24555
0.201256
0.164777
0.134978
0.110686
0.0908647
0.0746704
0.0614088
0.0505274
0.0415928
0.0342523
0.0282214
0.0232731
0.0192107
0.0158595
0.0130808
0.0107724
0.00885391
0.00726055
0.00593948
0.00484585
0.00394139
0.00319441
0.00257818
0.00207006
0.00165147
0.00130775
0.00102724
0.000800355
0.000619249
0.00047793
0.000371456
0.000295924
0.000249158
0.000229986
0.00023733
0.000268053
0.000311087
0.000343559
0.000345869
0.000330817
0.000309047
0.000193941
7.77104e-05
8.94187e-05
-0.000184646
-0.000242976
0.0510299
0.156399
0.270307
0.398258
0.541581
0.694518
0.840212
0.947215
0.985221
0.950901
0.867739
0.761004
0.64894
0.543404
0.449856
0.36962
0.302343
0.246586
0.200687
0.163311
0.133135
0.108767
0.0890163
0.072971
0.0598858
0.0491807
0.0404169
0.0332344
0.0273463
0.0225321
0.0185942
0.0153484
0.0126531
0.0104116
0.00854758
0.00699899
0.00571588
0.00465465
0.00377761
0.00305397
0.00245758
0.00196596
0.00156077
0.00122787
0.000956323
0.000736883
0.000561897
0.000425902
0.000324126
0.000252527
0.000209231
0.000193142
0.000203166
0.000237066
0.000284578
0.000320404
0.000320713
0.000302645
0.000281805
0.000147126
3.68063e-05
4.61923e-05
-0.000226324
-0.00024855
0.0514493
0.158577
0.276408
0.412452
0.570453
0.746028
0.920081
1.05081
1.09333
1.04386
0.93868
0.810758
0.681012
0.562605
0.460352
0.374385
0.303591
0.245712
0.198529
0.160546
0.130272
0.106059
0.0865496
0.070788
0.0579817
0.0475279
0.0389956
0.0320179
0.0263077
0.0216591
0.0178752
0.0147571
0.0121597
0.0099963
0.00819589
0.00669938
0.0054607
0.00443744
0.00359237
0.00289595
0.00232272
0.00185031
0.00146056
0.00114
0.000878741
0.000667844
0.000499724
0.000369752
0.000273331
0.000206044
0.000166552
0.000153714
0.000165881
0.00020178
0.000252736
0.0002912
0.000288158
0.000266697
0.000249655
9.37483e-05
-1.62796e-07
1.23452e-05
-0.000253275
-0.000239602
0.0511765
0.158669
0.279065
0.422169
0.594952
0.79583
1.00447
1.1661
1.21366
1.1431
1.01089
0.858892
0.709816
0.578216
0.467576
0.376311
0.302548
0.243021
0.194867
0.156562
0.126483
0.102654
0.0835435
0.0681905
0.0557559
0.0456167
0.0373693
0.0306369
0.0251322
0.0206761
0.0170738
0.014103
0.011614
0.00953736
0.00780783
0.00636891
0.00517995
0.00419935
0.00338988
0.00272383
0.00217657
0.00172562
0.00135292
0.00104584
0.000795914
0.000594478
0.000433702
0.000310311
0.000219868
0.000157126
0.000121771
0.000112516
0.000126266
0.000162721
0.000215901
0.000256321
0.000248449
0.000223325
0.000214515
3.61198e-05
-3.00003e-05
-5.72429e-06
-0.000263896
-0.000218439
0.050201
0.156566
0.277953
0.426673
0.613786
0.842441
1.09311
1.29549
1.34856
1.24846
1.08346
0.904662
0.73465
0.589845
0.471404
0.375363
0.29929
0.238639
0.189795
0.151443
0.121864
0.0986512
0.0800747
0.0652457
0.053266
0.0434912
0.0355762
0.0291234
0.023843
0.0196019
0.0162089
0.0134028
0.011028
0.00904449
0.00739154
0.0060139
0.004879
0.00394497
0.00317385
0.00254072
0.0020218
0.00159419
0.00123976
0.000946839
0.0007091
0.000517936
0.000364668
0.000248295
0.000164491
0.000106318
7.54415e-05
7.03729e-05
8.51486e-05
0.000120395
0.000174425
0.000216267
0.000202006
0.000172958
0.000178508
-2.29712e-05
-5.09997e-05
-3.47508e-06
-0.000261104
-0.000191781
0.048538
0.152231
0.272844
0.4253
0.625554
0.883955
1.18535
1.44206
1.50104
1.35931
1.15519
0.947319
0.754756
0.597137
0.471793
0.371532
0.293929
0.232729
0.183411
0.145266
0.116519
0.0941505
0.0762153
0.0620179
0.0505677
0.0411905
0.0336514
0.0275077
0.0224603
0.0184528
0.0152981
0.0126723
0.0104122
0.00852615
0.00695432
0.00563976
0.00456258
0.00367848
0.00294756
0.00234933
0.00186078
0.0014581
0.0011228
0.000844258
0.000619392
0.000439302
0.000293315
0.000184299
0.00010794
5.40427e-05
2.79848e-05
2.81286e-05
4.33997e-05
7.52617e-05
0.000128645
0.000171664
0.000149404
0.000116064
0.000143686
-8.03454e-05
-6.35327e-05
2.05401e-05
-0.00025213
-0.000170067
0.0462267
0.145701
0.263629
0.417501
0.6288
0.917976
1.27991
1.60984
1.67491
1.47422
1.22455
0.986205
0.769314
0.5998
0.468803
0.364823
0.286615
0.225493
0.175807
0.1381
0.110557
0.0892586
0.0720293
0.0585681
0.0477148
0.0387478
0.0316275
0.0258188
0.0210006
0.0172414
0.0143585
0.0119269
0.0097748
0.00798963
0.00650282
0.00525093
0.00423482
0.00340369
0.00271382
0.00215201
0.00169563
0.0013192
0.00100358
0.000739114
0.000527717
0.000359643
0.000220176
0.000118784
5.09937e-05
5.8242e-07
-2.03386e-05
-1.33292e-05
1.9531e-06
2.76801e-05
7.88536e-05
0.000123274
9.13458e-05
5.31418e-05
0.000111712
-0.000132578
-7.02226e-05
6.38659e-05
-0.000246639
-0.000165131
0.043325
0.137085
0.250337
0.402893
0.622088
0.941567
1.37455
1.80406
1.87509
1.59058
1.28968
1.02088
0.777397
0.597622
0.462626
0.355228
0.277533
0.21718
0.167063
0.129999
0.104092
0.0840881
0.0675691
0.0549542
0.0447603
0.0361885
0.0295347
0.0240853
0.0194763
0.015977
0.0134068
0.011182
0.00912168
0.00744112
0.00604326
0.00485085
0.00389933
0.00312411
0.00247499
0.00195073
0.00152818
0.00117917
0.000883508
0.000632177
0.000434829
0.000280063
0.000145594
5.2051e-05
-5.46096e-06
-5.39487e-05
-6.94744e-05
-5.30358e-05
-3.81686e-05
-2.21404e-05
2.5264e-05
7.2027e-05
2.85823e-05
-1.52698e-05
8.35676e-05
-0.000176244
-7.55493e-05
0.000120065
-0.000253349
-0.000186474
0.0399033
0.126565
0.233141
0.381309
0.604104
0.951246
1.46564
2.0315
2.10793
1.70401
1.34849
1.0513
0.777905
0.590498
0.453618
0.342689
0.266909
0.208094
0.157229
0.120994
0.0972512
0.0787597
0.0628692
0.0512312
0.0417581
0.0335279
0.0274016
0.0223362
0.0178951
0.0146645
0.0124601
0.0104535
0.00845567
0.00688588
0.00558168
0.00444174
0.00355928
0.00284307
0.0022329
0.00174713
0.00136007
0.0010395
0.000763908
0.000523945
0.000341296
0.000201797
6.96867e-05
-1.57906e-05
-6.03248e-05
-0.000109641
-0.000119631
-8.99036e-05
-7.58128e-05
-7.4212e-05
-3.20293e-05
1.91019e-05
-3.81939e-05
-8.85547e-05
5.93746e-05
-0.000208282
-8.48513e-05
0.000179551
-0.000275954
-0.000237
0.0360372
0.114376
0.212359
0.352838
0.573789
0.943043
1.54747
2.30104
2.38169
1.80762
1.39879
1.07805
0.769431
0.57847
0.44234
0.327046
0.255016
0.198607
0.146309
0.11109
0.0901744
0.0734057
0.0579396
0.0474533
0.0387648
0.0307687
0.0252561
0.0206026
0.016259
0.0133044
0.0115369
0.00975831
0.00777563
0.00632854
0.00512429
0.00402444
0.00321752
0.00256389
0.00198889
0.00154256
0.00119271
0.000901538
0.000646063
0.000414614
0.000247473
0.000126324
-7.7097e-06
-8.48789e-05
-0.000112147
-0.000166838
-0.000171347
-0.000122661
-0.000109642
-0.000128853
-9.31083e-05
-3.39488e-05
-0.000108504
-0.000166011
3.84144e-05
-0.000226489
-0.000102852
0.000231298
-0.000309811
-0.00030965
0.031802
0.100801
0.188444
0.317857
0.530491
0.91266
1.61148
2.62417
2.70709
1.89099
1.43859
1.10261
0.750071
0.561785
0.429614
0.307959
0.242188
0.189173
0.134242
0.100259
0.0830235
0.068174
0.0527565
0.0436765
0.0358431
0.0278962
0.0231268
0.018919
0.0145634
0.011892
0.0106575
0.00911539
0.00707534
0.00577358
0.00467798
0.00359801
0.00287674
0.00228996
0.00174363
0.00133809
0.00102736
0.00076644
0.000531292
0.000304036
0.000153456
5.55223e-05
-8.71172e-05
-0.000155675
-0.00015894
-0.000226214
-0.000225577
-0.000149779
-0.000138062
-0.000186783
-0.000158312
-8.50007e-05
-0.000182271
-0.000246896
1.93957e-05
-0.000230073
-0.000132001
0.00026513
-0.000341111
-0.000386622
0.0272691
0.0861545
0.161965
0.277039
0.474125
0.855783
1.6451
3.01568
3.09805
1.93878
1.46658
1.12771
0.71714
0.540978
0.416578
0.284815
0.228841
0.180354
0.120874
0.0884411
0.0759891
0.0632333
0.0472499
0.0399632
0.0330656
0.0248735
0.0210458
0.0173257
0.0127958
0.0104168
0.00984592
0.00854643
0.0063419
0.00522597
0.00425079
0.0031593
0.00253971
0.00202497
0.00149709
0.00113458
0.000865147
0.000635206
0.000421042
0.000191671
5.90226e-05
-8.12929e-06
-0.000169516
-0.00022907
-0.000197936
-0.000288861
-0.000283787
-0.00016938
-0.000159139
-0.000249237
-0.000228345
-0.000131089
-0.000260033
-0.000330572
9.92739e-07
-0.000220181
-0.000171061
0.000274043
-0.000350022
-0.000442569
0.0225061
0.0707624
0.133577
0.231342
0.405322
0.768577
1.63041
3.49457
3.57263
1.92914
1.48278
1.15765
0.666788
0.516997
0.404765
0.256595
0.215518
0.172837
0.105922
0.0755414
0.0692994
0.05878
0.0412895
0.0363883
0.0305198
0.0216344
0.0190511
0.0158704
0.0109337
0.00886188
0.00913062
0.00807713
0.00555375
0.00469205
0.00385251
0.00270227
0.00220957
0.0017731
0.00124831
0.000932806
0.000707096
0.000508624
0.000317005
7.65288e-05
-3.64724e-05
-6.12983e-05
-0.000256472
-0.000306522
-0.000225286
-0.000356424
-0.000348065
-0.000179134
-0.000170495
-0.000318084
-0.000304427
-0.000168061
-0.000343159
-0.000416764
-1.73938e-05
-0.000200259
-0.000214393
0.000255875
-0.000318201
-0.000452121
0.0175789
0.0549485
0.103979
0.181967
0.32555
0.648439
1.54239
4.08493
4.15407
1.83159
1.48954
1.19865
0.593498
0.49138
0.39618
0.221725
0.202935
0.167465
0.0889375
0.0614348
0.0632292
0.0550461
0.0346655
0.0330479
0.028313
0.0180744
0.0171915
0.0146112
0.00894305
0.00720351
0.00854599
0.00773844
0.00467819
0.00418085
0.00349533
0.0022171
0.00189025
0.00153916
0.000995216
0.000733521
0.000554166
0.000387217
0.000221257
-4.28951e-05
-0.000134222
-9.94864e-05
-0.000350293
-0.000390239
-0.000235682
-0.000431266
-0.000421239
-0.000176141
-0.000169201
-0.000395947
-0.000388488
-0.000190155
-0.000434063
-0.000505934
-3.47466e-05
-0.000176129
-0.000252356
0.000213775
-0.000239335
-0.000400417
0.0125543
0.0390114
0.073868
0.130285
0.237152
0.495035
1.34687
4.81708
4.87215
1.60457
1.49275
1.25925
0.489463
0.4665
0.39338
0.177881
0.192068
0.165265
0.069258
0.0459749
0.0581086
0.0523082
0.0270676
0.0300701
0.0265792
0.01404
0.015531
0.0136181
0.00677511
0.00541052
0.00813377
0.00756819
0.00366839
0.00370561
0.00319449
0.0016892
0.00158701
0.00132883
0.000734315
0.000537649
0.000407283
0.000271163
0.000136432
-0.00016869
-0.000236145
-0.000116655
-0.000454215
-0.000483399
-0.000221907
-0.000516676
-0.000506988
-0.000156809
-0.000151655
-0.000486328
-0.000483404
-0.000189504
-0.000536417
-0.000599736
-4.75423e-05
-0.000155677
-0.000273025
0.000155222
-0.000128955
-0.000293126
0.00750019
0.0231975
0.0438714
0.0777378
0.143286
0.311685
0.998101
5.72877
5.76465
1.19249
1.50355
1.3505
0.34385
0.445885
0.399559
0.121773
0.184241
0.167462
0.0459511
0.029009
0.0543293
0.0508997
0.0180593
0.0276289
0.0254846
0.00931628
0.0141562
0.0129752
0.00436417
0.00344406
0.00794426
0.00761277
0.00245985
0.00328582
0.00296885
0.00109789
0.00130706
0.0011488
0.000460369
0.000346473
0.00026736
0.000160172
6.59164e-05
-0.000303601
-0.000345101
-0.000104788
-0.000572614
-0.000590415
-0.000174315
-0.000617128
-0.00060996
-0.000116719
-0.000113461
-0.000593716
-0.000593291
-0.000155576
-0.000655353
-0.000701507
-4.90001e-05
-0.000148143
-0.000265141
9.00581e-05
-2.72364e-05
-0.00016025
0.00247714
0.00766225
0.0144836
0.0257107
0.0477099
0.10711
0.436002
6.86644
6.87907
0.522417
1.54029
1.48616
0.141947
0.434618
0.418607
0.0488921
0.181264
0.175508
0.0177559
0.0103994
0.0523484
0.0512227
0.00704892
0.0259608
0.0252343
0.00361236
0.0131841
0.0127824
0.00162435
0.0012576
0.00803745
0.00792918
0.000966394
0.00294959
0.00284148
0.000414979
0.00106044
0.0010069
0.000165996
0.000161875
0.000135312
5.33413e-05
1.40797e-05
-0.00045109
-0.000465165
-5.33918e-05
-0.000711241
-0.000717244
-8.02282e-05
-0.000738596
-0.000735862
-5.05006e-05
-4.93057e-05
-0.000723675
-0.000723852
-7.45569e-05
-0.000797686
-0.000816707
-2.85778e-05
-0.000163086
-0.000221877
2.87799e-05
1.36252e-05
-4.62147e-05
)
;

boundaryField
{
    left
    {
        type            calculated;
        value           uniform 0;
    }
    right
    {
        type            calculated;
        value           uniform 0;
    }
    interface
    {
        type            calculated;
        value           nonuniform List<scalar> 
64
(
0.00247714
0.00766225
0.0144836
0.0257107
0.0477099
0.10711
0.436002
6.86644
6.87907
0.522417
1.54029
1.48616
0.141947
0.434618
0.418607
0.0488921
0.181264
0.175508
0.0177559
0.0103994
0.0523484
0.0512227
0.00704892
0.0259608
0.0252343
0.00361236
0.0131841
0.0127824
0.00162435
0.0012576
0.00803745
0.00792918
0.000966394
0.00294959
0.00284148
0.000414979
0.00106044
0.0010069
0.000165996
0.000161875
0.000135312
5.33413e-05
1.40797e-05
-0.00045109
-0.000465165
-5.33918e-05
-0.000711241
-0.000717244
-8.02282e-05
-0.000738596
-0.000735862
-5.05006e-05
-4.93057e-05
-0.000723675
-0.000723852
-7.45569e-05
-0.000797686
-0.000816707
-2.85778e-05
-0.000163086
-0.000221877
2.87799e-05
1.36252e-05
-4.62147e-05
)
;
    }
    bottom
    {
        type            calculated;
        value           nonuniform List<scalar> 
64
(
0.00180184
0.00534718
0.00878364
0.0120191
0.0149399
0.0174893
0.0195805
0.0211459
0.0221523
0.0225962
0.0225048
0.0219346
0.0209641
0.0196849
0.0181914
0.0165729
0.0149075
0.0132592
0.0116764
0.0101933
0.00883108
0.00760034
0.00650365
0.00553765
0.004695
0.00396594
0.00333947
0.00280428
0.00234929
0.00196406
0.00163902
0.00136554
0.00113599
0.000943694
0.000782879
0.000648585
0.000536584
0.000443288
0.000365669
0.000301178
0.000247674
0.000203367
0.000166761
0.000136609
0.000111877
9.1705e-05
7.53821e-05
6.23191e-05
5.20246e-05
4.40817e-05
3.81231e-05
3.38061e-05
3.07878e-05
2.87094e-05
2.71951e-05
2.58777e-05
2.44472e-05
2.27052e-05
2.05825e-05
1.80684e-05
1.50458e-05
1.12209e-05
6.63355e-06
2.10253e-06
)
;
    }
    defaultFaces
    {
        type            empty;
    }
}


// ************************************************************************* //
