/*--------------------------------*- C++ -*----------------------------------*\
| =========                 |                                                 |
| \\      /  F ield         | OpenFOAM: The Open Source CFD Toolbox           |
|  \\    /   O peration     | Version:  5.x                                   |
|   \\  /    A nd           | Web:      www.OpenFOAM.org                      |
|    \\/     M anipulation  |                                                 |
\*---------------------------------------------------------------------------*/
FoamFile
{
    version     2.0;
    format      ascii;
    class       volScalarField;
    location    "0.3";
    object      T;
}
// * * * * * * * * * * * * * * * * * * * * * * * * * * * * * * * * * * * * * //

dimensions      [0 0 0 1 0 0 0];

internalField   nonuniform List<scalar> 
2048
(
9.76552
9.76558
9.76569
9.76585
9.76607
9.76632
9.76661
9.76693
9.76727
9.76763
9.76798
9.76833
9.76867
9.76898
9.76928
9.76955
9.7698
9.77002
9.77021
9.77038
9.77053
9.77066
9.77077
9.77086
9.77094
9.77101
9.77107
9.77111
9.77115
9.77119
9.77122
9.77124
9.77126
9.77127
9.77129
9.7713
9.77131
9.77132
9.77132
9.77133
9.77133
9.77133
9.77134
9.77134
9.77134
9.77134
9.77134
9.77135
9.77135
9.77135
9.77135
9.77135
9.77135
9.77135
9.77135
9.77135
9.77135
9.77135
9.77135
9.77135
9.77135
9.77135
9.77135
9.77135
9.30681
9.30697
9.3073
9.30779
9.30842
9.30918
9.31005
9.311
9.31202
9.31307
9.31412
9.31516
9.31616
9.3171
9.31798
9.31879
9.31952
9.32017
9.32074
9.32124
9.32168
9.32206
9.32238
9.32265
9.32289
9.32309
9.32325
9.32339
9.32351
9.32361
9.32369
9.32376
9.32381
9.32386
9.3239
9.32393
9.32396
9.32398
9.324
9.32402
9.32403
9.32404
9.32405
9.32405
9.32406
9.32406
9.32407
9.32407
9.32407
9.32407
9.32408
9.32408
9.32408
9.32408
9.32408
9.32408
9.32408
9.32409
9.32409
9.32409
9.32409
9.32409
9.32409
9.32409
8.86809
8.86837
8.86892
8.86972
8.87077
8.87203
8.87346
8.87505
8.87673
8.87846
8.8802
8.88192
8.88357
8.88512
8.88656
8.88788
8.88907
8.89013
8.89107
8.89188
8.89259
8.8932
8.89372
8.89417
8.89455
8.89486
8.89513
8.89536
8.89555
8.8957
8.89584
8.89595
8.89604
8.89611
8.89618
8.89623
8.89627
8.89631
8.89634
8.89636
8.89638
8.8964
8.89641
8.89642
8.89643
8.89644
8.89644
8.89645
8.89645
8.89646
8.89646
8.89646
8.89646
8.89647
8.89647
8.89647
8.89647
8.89647
8.89648
8.89648
8.89648
8.89648
8.89648
8.89648
8.44848
8.44887
8.44963
8.45076
8.45221
8.45397
8.45599
8.4582
8.46055
8.46297
8.4654
8.46779
8.47008
8.47223
8.47422
8.47604
8.47767
8.47912
8.4804
8.48151
8.48247
8.4833
8.484
8.4846
8.48511
8.48554
8.4859
8.4862
8.48646
8.48667
8.48685
8.48699
8.48712
8.48722
8.4873
8.48737
8.48743
8.48748
8.48752
8.48755
8.48758
8.4876
8.48761
8.48763
8.48764
8.48765
8.48766
8.48767
8.48767
8.48768
8.48768
8.48768
8.48769
8.48769
8.48769
8.48769
8.4877
8.4877
8.4877
8.4877
8.48771
8.48771
8.48771
8.48771
8.04711
8.04761
8.04859
8.05003
8.05191
8.05418
8.05678
8.05964
8.06267
8.06579
8.06892
8.07198
8.07491
8.07766
8.08019
8.08248
8.08454
8.08636
8.08796
8.08934
8.09054
8.09156
8.09244
8.09318
8.0938
8.09433
8.09478
8.09515
8.09546
8.09572
8.09593
8.09611
8.09626
8.09639
8.09649
8.09658
8.09665
8.0967
8.09675
8.09679
8.09682
8.09685
8.09687
8.09689
8.0969
8.09692
8.09693
8.09693
8.09694
8.09695
8.09695
8.09696
8.09696
8.09696
8.09697
8.09697
8.09697
8.09698
8.09698
8.09698
8.09698
8.09699
8.09699
8.09699
7.66316
7.66377
7.66497
7.66674
7.66905
7.67184
7.67504
7.67856
7.6823
7.68615
7.68999
7.69374
7.69731
7.70064
7.7037
7.70646
7.70892
7.71109
7.71299
7.71463
7.71604
7.71724
7.71826
7.71913
7.71986
7.72048
7.72099
7.72142
7.72178
7.72208
7.72233
7.72254
7.72272
7.72286
7.72298
7.72308
7.72316
7.72322
7.72328
7.72333
7.72336
7.72339
7.72342
7.72344
7.72346
7.72347
7.72348
7.72349
7.7235
7.7235
7.72351
7.72351
7.72352
7.72352
7.72353
7.72353
7.72353
7.72354
7.72354
7.72354
7.72355
7.72355
7.72355
7.72355
7.29585
7.29657
7.29799
7.30009
7.30284
7.30618
7.31
7.31422
7.3187
7.32329
7.32787
7.33232
7.33654
7.34046
7.34403
7.34724
7.35009
7.35259
7.35476
7.35663
7.35823
7.35959
7.36075
7.36173
7.36255
7.36324
7.36381
7.3643
7.3647
7.36503
7.36531
7.36554
7.36574
7.3659
7.36603
7.36614
7.36623
7.3663
7.36636
7.36641
7.36646
7.36649
7.36652
7.36654
7.36656
7.36657
7.36659
7.3666
7.3666
7.36661
7.36662
7.36662
7.36663
7.36663
7.36664
7.36664
7.36664
7.36665
7.36665
7.36666
7.36666
7.36666
7.36666
7.36666
6.94442
6.94526
6.9469
6.94935
6.95255
6.95644
6.96093
6.96588
6.97113
6.97651
6.98186
6.98702
6.9919
6.9964
7.00048
7.00412
7.00733
7.01014
7.01256
7.01464
7.01641
7.01791
7.01918
7.02025
7.02115
7.0219
7.02253
7.02305
7.02349
7.02385
7.02416
7.02441
7.02462
7.02479
7.02493
7.02505
7.02515
7.02523
7.02529
7.02535
7.02539
7.02543
7.02546
7.02548
7.0255
7.02552
7.02553
7.02554
7.02555
7.02556
7.02556
7.02557
7.02557
7.02558
7.02558
7.02559
7.02559
7.0256
7.0256
7.0256
7.02561
7.02561
7.02561
7.02561
6.60818
6.60913
6.611
6.61379
6.61746
6.62194
6.62711
6.63283
6.6389
6.64511
6.65126
6.65717
6.66271
6.66779
6.67236
6.67642
6.67998
6.68306
6.68571
6.68797
6.68989
6.69151
6.69288
6.69402
6.69498
6.69578
6.69645
6.69701
6.69747
6.69786
6.69818
6.69844
6.69866
6.69885
6.699
6.69912
6.69922
6.69931
6.69938
6.69944
6.69948
6.69952
6.69955
6.69958
6.6996
6.69961
6.69963
6.69964
6.69965
6.69965
6.69966
6.69967
6.69967
6.69968
6.69968
6.69969
6.69969
6.6997
6.6997
6.69971
6.69971
6.69971
6.69972
6.69972
6.28645
6.28751
6.2896
6.29274
6.29688
6.30196
6.30786
6.3144
6.32134
6.32843
6.33542
6.3421
6.34831
6.35397
6.35903
6.36348
6.36735
6.37069
6.37354
6.37596
6.378
6.37972
6.38116
6.38237
6.38338
6.38422
6.38492
6.3855
6.38599
6.38639
6.38672
6.387
6.38722
6.38741
6.38757
6.3877
6.38781
6.38789
6.38796
6.38802
6.38807
6.38811
6.38814
6.38817
6.38819
6.38821
6.38822
6.38823
6.38824
6.38825
6.38825
6.38826
6.38827
6.38827
6.38828
6.38828
6.38829
6.38829
6.3883
6.3883
6.38831
6.38831
6.38831
6.38831
5.97858
5.97974
5.98206
5.98554
5.99017
5.99587
6.00253
6.00994
6.01781
6.02584
6.03371
6.04119
6.04809
6.05432
6.05984
6.06466
6.06882
6.07238
6.07541
6.07796
6.08011
6.08191
6.08341
6.08466
6.0857
6.08657
6.08729
6.08789
6.08839
6.0888
6.08914
6.08943
6.08966
6.08985
6.09001
6.09014
6.09025
6.09034
6.09042
6.09048
6.09052
6.09056
6.0906
6.09062
6.09064
6.09066
6.09068
6.09069
6.0907
6.0907
6.09071
6.09071
6.09072
6.09072
6.09073
6.09074
6.09074
6.09075
6.09075
6.09076
6.09076
6.09076
6.09077
6.09077
5.68396
5.68522
5.68775
5.69157
5.69668
5.70303
5.71049
5.71883
5.72771
5.73674
5.74555
5.75385
5.76144
5.76823
5.7742
5.77936
5.78378
5.78754
5.79071
5.79337
5.79559
5.79745
5.79899
5.80028
5.80134
5.80223
5.80296
5.80357
5.80408
5.80449
5.80484
5.80512
5.80536
5.80556
5.80572
5.80585
5.80596
5.80605
5.80612
5.80618
5.80623
5.80627
5.8063
5.80633
5.80635
5.80637
5.80638
5.80639
5.8064
5.80641
5.80641
5.80642
5.80642
5.80643
5.80644
5.80644
5.80645
5.80645
5.80646
5.80646
5.80647
5.80647
5.80647
5.80647
5.40201
5.40336
5.40609
5.41024
5.41583
5.42284
5.43114
5.44048
5.45044
5.46055
5.47035
5.47949
5.48779
5.49512
5.50151
5.50698
5.51163
5.51555
5.51884
5.52158
5.52386
5.52575
5.52732
5.52863
5.5297
5.5306
5.53134
5.53195
5.53245
5.53287
5.53322
5.5335
5.53374
5.53394
5.5341
5.53423
5.53434
5.53443
5.5345
5.53456
5.53461
5.53465
5.53468
5.53471
5.53473
5.53474
5.53476
5.53477
5.53477
5.53478
5.53479
5.53479
5.5348
5.5348
5.53481
5.53481
5.53482
5.53483
5.53483
5.53484
5.53484
5.53484
5.53485
5.53484
5.13217
5.13361
5.13652
5.14097
5.14703
5.1547
5.1639
5.17431
5.18545
5.19671
5.20756
5.21758
5.22657
5.23444
5.24121
5.24696
5.25181
5.25586
5.25923
5.26203
5.26434
5.26626
5.26784
5.26914
5.27022
5.27111
5.27185
5.27246
5.27296
5.27338
5.27372
5.274
5.27424
5.27443
5.27459
5.27472
5.27483
5.27492
5.27499
5.27505
5.27509
5.27513
5.27516
5.27519
5.27521
5.27522
5.27524
5.27525
5.27526
5.27526
5.27527
5.27527
5.27528
5.27528
5.27529
5.27529
5.2753
5.2753
5.27531
5.27531
5.27532
5.27532
5.27532
5.27532
4.87392
4.87543
4.8785
4.88323
4.88974
4.89808
4.90819
4.91976
4.93219
4.94472
4.95666
4.96759
4.97727
4.98564
4.99276
4.99876
5.00376
5.00791
5.01134
5.01417
5.01649
5.01841
5.01998
5.02128
5.02235
5.02323
5.02396
5.02456
5.02506
5.02547
5.0258
5.02608
5.02631
5.0265
5.02666
5.02679
5.02689
5.02698
5.02705
5.0271
5.02715
5.02719
5.02722
5.02724
5.02726
5.02728
5.02729
5.0273
5.0273
5.02731
5.02731
5.02732
5.02732
5.02733
5.02733
5.02734
5.02734
5.02735
5.02735
5.02736
5.02736
5.02736
5.02737
5.02736
4.62677
4.62833
4.63153
4.63649
4.64342
4.65242
4.66349
4.67632
4.69016
4.70405
4.71717
4.72901
4.73936
4.74821
4.75565
4.76184
4.76696
4.77118
4.77463
4.77746
4.77978
4.78168
4.78324
4.78452
4.78558
4.78644
4.78715
4.78774
4.78822
4.78862
4.78895
4.78922
4.78945
4.78963
4.78978
4.78991
4.79001
4.79009
4.79016
4.79022
4.79026
4.7903
4.79033
4.79035
4.79037
4.79038
4.79039
4.7904
4.79041
4.79041
4.79042
4.79042
4.79042
4.79043
4.79043
4.79044
4.79044
4.79045
4.79045
4.79046
4.79046
4.79046
4.79046
4.79046
4.39024
4.39183
4.39513
4.40028
4.40757
4.4172
4.42927
4.44346
4.45888
4.47425
4.48859
4.50137
4.51237
4.52165
4.52935
4.5357
4.5409
4.54515
4.54861
4.55142
4.55371
4.55558
4.55711
4.55837
4.55939
4.56024
4.56093
4.5615
4.56197
4.56235
4.56267
4.56294
4.56315
4.56333
4.56348
4.5636
4.5637
4.56378
4.56384
4.56389
4.56394
4.56397
4.564
4.56402
4.56404
4.56405
4.56406
4.56407
4.56407
4.56408
4.56408
4.56408
4.56409
4.56409
4.56409
4.5641
4.5641
4.56411
4.56411
4.56412
4.56412
4.56412
4.56412
4.56411
4.16387
4.16548
4.16883
4.17412
4.18172
4.19194
4.20503
4.2207
4.23787
4.25486
4.27049
4.2842
4.29582
4.30548
4.31341
4.31986
4.32511
4.32935
4.33278
4.33556
4.3378
4.33963
4.34112
4.34233
4.34333
4.34414
4.34481
4.34536
4.34581
4.34618
4.34649
4.34674
4.34695
4.34712
4.34726
4.34738
4.34747
4.34755
4.34761
4.34766
4.3477
4.34773
4.34776
4.34778
4.3478
4.34781
4.34782
4.34782
4.34783
4.34783
4.34783
4.34784
4.34784
4.34784
4.34785
4.34785
4.34785
4.34786
4.34786
4.34787
4.34787
4.34787
4.34787
4.34786
3.94725
3.94885
3.9522
3.95757
3.9654
3.97616
3.99027
4.00755
4.02671
4.04548
4.06243
4.07707
4.08927
4.09925
4.10734
4.11386
4.1191
4.12331
4.12669
4.1294
4.13159
4.13336
4.13479
4.13597
4.13692
4.13771
4.13835
4.13888
4.13931
4.13966
4.13995
4.1402
4.14039
4.14056
4.14069
4.1408
4.14089
4.14096
4.14102
4.14107
4.14111
4.14114
4.14116
4.14118
4.14119
4.14121
4.14121
4.14122
4.14122
4.14123
4.14123
4.14123
4.14123
4.14123
4.14124
4.14124
4.14124
4.14125
4.14125
4.14125
4.14125
4.14125
4.14125
4.14125
3.73995
3.74152
3.74485
3.75021
3.75818
3.76939
3.78451
3.80355
3.82499
3.84569
3.864
3.87955
3.89227
3.90251
3.91071
3.91724
3.92244
3.92659
3.92989
3.93252
3.93463
3.93633
3.93771
3.93883
3.93975
3.9405
3.94111
3.94161
3.94202
3.94235
3.94263
3.94286
3.94305
3.94321
3.94333
3.94344
3.94352
3.94359
3.94364
3.94369
3.94372
3.94375
3.94377
3.94379
3.9438
3.94381
3.94382
3.94382
3.94383
3.94383
3.94383
3.94383
3.94383
3.94383
3.94384
3.94384
3.94384
3.94385
3.94385
3.94385
3.94385
3.94385
3.94385
3.94384
3.5416
3.54312
3.54636
3.55165
3.55965
3.57119
3.58727
3.60824
3.63234
3.65514
3.67482
3.69124
3.70442
3.71483
3.72308
3.72957
3.73469
3.73876
3.74197
3.74449
3.7465
3.74813
3.74945
3.75051
3.75138
3.75209
3.75267
3.75315
3.75353
3.75385
3.75411
3.75433
3.7545
3.75465
3.75477
3.75487
3.75495
3.75501
3.75506
3.7551
3.75514
3.75516
3.75518
3.7552
3.75521
3.75522
3.75522
3.75522
3.75523
3.75523
3.75523
3.75523
3.75523
3.75523
3.75523
3.75523
3.75524
3.75524
3.75524
3.75524
3.75524
3.75524
3.75524
3.75523
3.35183
3.35327
3.35638
3.36151
3.36943
3.38116
3.39811
3.42116
3.44842
3.4735
3.49449
3.51176
3.52531
3.53581
3.54405
3.55046
3.55545
3.55941
3.5625
3.56491
3.56682
3.56836
3.5696
3.57061
3.57144
3.5721
3.57265
3.57309
3.57345
3.57375
3.57399
3.5742
3.57436
3.5745
3.57461
3.5747
3.57478
3.57484
3.57488
3.57492
3.57495
3.57498
3.57499
3.57501
3.57502
3.57502
3.57503
3.57503
3.57503
3.57503
3.57503
3.57503
3.57503
3.57503
3.57503
3.57503
3.57504
3.57504
3.57504
3.57504
3.57503
3.57504
3.57503
3.57503
3.17027
3.17162
3.17455
3.17944
3.18714
3.19888
3.21656
3.24184
3.27294
3.30043
3.32265
3.34074
3.35455
3.36503
3.37323
3.37949
3.38433
3.38816
3.39111
3.39338
3.39518
3.39663
3.3978
3.39875
3.39952
3.40015
3.40065
3.40107
3.4014
3.40168
3.4019
3.4021
3.40225
3.40238
3.40249
3.40257
3.40264
3.40269
3.40273
3.40277
3.4028
3.40282
3.40283
3.40284
3.40285
3.40286
3.40286
3.40286
3.40286
3.40286
3.40286
3.40286
3.40286
3.40286
3.40286
3.40286
3.40286
3.40286
3.40286
3.40286
3.40285
3.40286
3.40286
3.40285
2.99658
2.99783
3.00054
3.00512
3.01246
3.024
3.04218
3.0698
3.10567
3.13567
3.15892
3.17781
3.19177
3.20212
3.21022
3.2163
3.22093
3.22464
3.22744
3.22955
3.23122
3.23259
3.23368
3.23455
3.23528
3.23586
3.23633
3.23671
3.23702
3.23727
3.23748
3.23766
3.23781
3.23793
3.23802
3.2381
3.23816
3.23821
3.23825
3.23828
3.23831
3.23833
3.23834
3.23835
3.23836
3.23836
3.23836
3.23836
3.23836
3.23836
3.23836
3.23836
3.23836
3.23835
3.23835
3.23835
3.23835
3.23835
3.23835
3.23835
3.23834
3.23835
3.23835
3.23834
2.83045
2.83158
2.83403
2.83822
2.84506
2.85615
2.87453
2.90451
2.94643
2.97893
3.00292
3.02265
3.03661
3.04669
3.05469
3.06051
3.06491
3.06848
3.07111
3.07306
3.07459
3.07587
3.07688
3.07768
3.07836
3.0789
3.07932
3.07968
3.07997
3.08019
3.08038
3.08055
3.08069
3.0808
3.08089
3.08096
3.08101
3.08106
3.08109
3.08112
3.08114
3.08116
3.08117
3.08118
3.08118
3.08118
3.08119
3.08118
3.08118
3.08118
3.08118
3.08118
3.08117
3.08117
3.08117
3.08117
3.08117
3.08117
3.08116
3.08117
3.08116
3.08116
3.08116
3.08115
2.67156
2.67256
2.67471
2.67845
2.68465
2.69502
2.71317
2.74538
2.79517
2.82998
2.85427
2.87494
2.88872
2.89838
2.90628
2.9118
2.9159
2.91937
2.92181
2.92356
2.92495
2.92616
2.92708
2.92781
2.92844
2.92893
2.92931
2.92965
2.92991
2.9301
2.93028
2.93044
2.93056
2.93066
2.93074
2.93081
2.93085
2.9309
2.93093
2.93095
2.93097
2.93098
2.93099
2.931
2.931
2.931
2.931
2.931
2.931
2.931
2.93099
2.93099
2.93099
2.93098
2.93098
2.93098
2.93098
2.93097
2.93097
2.93097
2.93096
2.93097
2.93097
2.93096
2.51961
2.52046
2.5223
2.52552
2.53096
2.54034
2.5577
2.59175
2.65194
2.68856
2.71253
2.73439
2.74777
2.75681
2.76468
2.76982
2.77358
2.77697
2.77921
2.78075
2.78198
2.78313
2.78395
2.7846
2.7852
2.78564
2.78598
2.78629
2.78652
2.78669
2.78685
2.787
2.78711
2.7872
2.78728
2.78733
2.78738
2.78741
2.78744
2.78746
2.78747
2.78749
2.78749
2.7875
2.7875
2.7875
2.7875
2.7875
2.78749
2.78749
2.78748
2.78748
2.78748
2.78748
2.78747
2.78747
2.78747
2.78746
2.78746
2.78746
2.78745
2.78745
2.78746
2.78744
2.37431
2.37501
2.37652
2.37918
2.38375
2.39185
2.40777
2.4428
2.51697
2.55445
2.57726
2.60078
2.61343
2.62162
2.62959
2.63427
2.63761
2.641
2.64301
2.64431
2.64537
2.64648
2.64721
2.64777
2.64834
2.64872
2.64902
2.64932
2.64951
2.64966
2.64979
2.64995
2.65004
2.65012
2.65019
2.65024
2.65028
2.65031
2.65033
2.65035
2.65036
2.65037
2.65038
2.65038
2.65038
2.65038
2.65038
2.65037
2.65037
2.65036
2.65036
2.65035
2.65035
2.65035
2.65034
2.65034
2.65033
2.65033
2.65032
2.65033
2.65032
2.65032
2.65032
2.65031
2.23537
2.23592
2.23709
2.23917
2.24278
2.24934
2.26304
2.29754
2.39069
2.42736
2.44793
2.47391
2.48539
2.49245
2.50074
2.50483
2.50767
2.51118
2.51291
2.51396
2.51483
2.51593
2.51655
2.51701
2.51758
2.5179
2.51814
2.51844
2.5186
2.51872
2.51883
2.51898
2.51907
2.51913
2.5192
2.51924
2.51927
2.5193
2.51932
2.51933
2.51934
2.51935
2.51935
2.51935
2.51935
2.51935
2.51935
2.51934
2.51933
2.51933
2.51932
2.51932
2.51932
2.51931
2.5193
2.5193
2.5193
2.51929
2.51928
2.51929
2.51928
2.51928
2.51928
2.51927
2.10254
2.10293
2.10376
2.10524
2.10783
2.11265
2.1233
2.15474
2.27384
2.307
2.32398
2.35365
2.36333
2.36894
2.37791
2.38124
2.38347
2.38724
2.38863
2.3894
2.39007
2.39122
2.3917
2.39206
2.39264
2.39289
2.39308
2.39338
2.39351
2.39359
2.39368
2.39385
2.39391
2.39396
2.39403
2.39406
2.39408
2.39411
2.39412
2.39413
2.39414
2.39415
2.39415
2.39415
2.39414
2.39414
2.39414
2.39413
2.39412
2.39412
2.39411
2.39411
2.3941
2.3941
2.39409
2.39409
2.39408
2.39407
2.39406
2.39407
2.39406
2.39406
2.39406
2.39405
1.97556
1.97579
1.97628
1.97716
1.97871
1.98164
1.98845
2.01283
2.16747
2.19298
2.20474
2.23996
2.24694
2.25071
2.26088
2.26319
2.26468
2.26895
2.26992
2.27039
2.27082
2.27208
2.27241
2.27265
2.27328
2.27344
2.27357
2.27389
2.27397
2.27402
2.27408
2.27427
2.27432
2.27435
2.27442
2.27444
2.27446
2.27448
2.27449
2.2745
2.2745
2.27451
2.27451
2.27451
2.2745
2.2745
2.27449
2.27448
2.27448
2.27447
2.27446
2.27445
2.27445
2.27445
2.27443
2.27443
2.27443
2.27441
2.27441
2.27441
2.2744
2.2744
2.27441
2.2744
1.85417
1.85424
1.85441
1.8547
1.85521
1.85619
1.85856
1.86981
2.07313
2.08478
2.08946
2.13292
2.1359
2.13735
2.14948
2.15044
2.15101
2.1561
2.1565
2.15665
2.15682
2.15829
2.15842
2.15851
2.15923
2.1593
2.15935
2.15971
2.15974
2.15976
2.15978
2.16001
2.16003
2.16004
2.16012
2.16013
2.16014
2.16017
2.16017
2.16017
2.16017
2.16017
2.16018
2.16018
2.16016
2.16016
2.16016
2.16014
2.16014
2.16014
2.16011
2.16011
2.16011
2.16011
2.16009
2.16009
2.16009
2.16006
2.16006
2.16006
2.16006
2.16006
2.16006
2.16006
)
;

boundaryField
{
    left
    {
        type            zeroGradient;
    }
    right
    {
        type            zeroGradient;
    }
    interface
    {
        type            fixedValue;
        value           nonuniform List<scalar> 
64
(
1.79485
1.79485
1.79485
1.79485
1.79485
1.79485
1.79485
1.79485
2.03211
2.03211
2.03211
2.0817
2.0817
2.0817
2.09536
2.09536
2.09536
2.1011
2.1011
2.1011
2.1011
2.10274
2.10274
2.10274
2.10354
2.10354
2.10354
2.10395
2.10395
2.10395
2.10395
2.1042
2.1042
2.1042
2.10429
2.10429
2.10429
2.10432
2.10432
2.10432
2.10432
2.10432
2.10432
2.10432
2.10431
2.10431
2.10431
2.10428
2.10428
2.10428
2.10426
2.10426
2.10426
2.10426
2.10423
2.10423
2.10423
2.1042
2.1042
2.1042
2.1042
2.1042
2.1042
2.1042
)
;
    }
    bottom
    {
        type            fixedValue;
        value           uniform 10;
    }
    defaultFaces
    {
        type            empty;
    }
}


// ************************************************************************* //
