/*--------------------------------*- C++ -*----------------------------------*\
| =========                 |                                                 |
| \\      /  F ield         | OpenFOAM: The Open Source CFD Toolbox           |
|  \\    /   O peration     | Version:  5.x                                   |
|   \\  /    A nd           | Web:      www.OpenFOAM.org                      |
|    \\/     M anipulation  |                                                 |
\*---------------------------------------------------------------------------*/
FoamFile
{
    version     2.0;
    format      ascii;
    class       volScalarField;
    location    "11.1";
    object      gradTx;
}
// * * * * * * * * * * * * * * * * * * * * * * * * * * * * * * * * * * * * * //

dimensions      [0 -1 0 1 0 0 0];

internalField   nonuniform List<scalar> 
2048
(
0.0222191
0.0664104
0.109839
0.151927
0.192017
0.22938
0.263257
0.292917
0.317738
0.337269
0.351279
0.359776
0.36299
0.36134
0.355387
0.345783
0.333224
0.318405
0.301993
0.284595
0.266742
0.248879
0.231361
0.21446
0.198366
0.183205
0.169044
0.155904
0.143767
0.132586
0.122294
0.11281
0.104049
0.0959297
0.0883751
0.0813202
0.0747115
0.068507
0.0626754
0.0571946
0.0520495
0.0472305
0.0427305
0.0385433
0.0346623
0.0310785
0.0277813
0.0247575
0.0219924
0.01947
0.0171735
0.0150859
0.0131898
0.0114683
0.00990462
0.00848269
0.00718693
0.00600229
0.00491412
0.00390797
0.00296933
0.00208347
0.00123528
0.000409343
0.0658896
0.196958
0.325822
0.450789
0.569908
0.680993
0.781744
0.869943
0.943692
1.00162
1.04304
1.06796
1.07712
1.07177
1.05364
1.02467
0.986966
0.942608
0.893587
0.841714
0.788567
0.735465
0.683457
0.633333
0.585653
0.540777
0.498896
0.460065
0.424222
0.391225
0.360864
0.332898
0.307068
0.283127
0.260847
0.240035
0.220533
0.202217
0.184995
0.168805
0.153603
0.139362
0.126064
0.113692
0.102225
0.09164
0.0819032
0.0729762
0.0648151
0.0573721
0.0505973
0.0444399
0.0388487
0.0337731
0.0291639
0.0249731
0.0211549
0.0176649
0.0144599
0.0114974
0.00873466
0.00612812
0.00363307
0.00120388
0.108188
0.323464
0.535306
0.741004
0.93735
1.12067
1.28705
1.43266
1.55424
1.64941
1.71701
1.75711
1.77098
1.76082
1.72954
1.68048
1.61715
1.54304
1.46147
1.37543
1.28754
1.19995
1.11435
1.03204
0.953881
0.880445
0.812017
0.748662
0.690261
0.636558
0.587192
0.541745
0.499781
0.46088
0.424667
0.39082
0.359081
0.329252
0.301187
0.274787
0.249989
0.226753
0.205054
0.184869
0.166169
0.148912
0.133047
0.118508
0.105223
0.0931124
0.0820937
0.0720831
0.0629965
0.054751
0.0472654
0.0404617
0.0342648
0.0286028
0.0234056
0.0186046
0.0141301
0.00991139
0.00587521
0.00194673
0.149396
0.446813
0.739878
1.02499
1.29773
1.55284
1.78461
1.9874
2.15634
2.28794
2.38052
2.43427
2.45111
2.43433
2.38819
2.31748
2.22723
2.12238
2.0076
1.88709
1.76448
1.64273
1.52414
1.41043
1.30274
1.20179
1.10794
1.02121
0.941418
0.868162
0.80091
0.739049
0.681947
0.629002
0.579686
0.533552
0.49025
0.449512
0.411147
0.375029
0.341081
0.309261
0.279545
0.251909
0.226318
0.202719
0.181038
0.161184
0.143054
0.126536
0.111517
0.0978803
0.0855086
0.0742876
0.0641055
0.0548548
0.046433
0.0387421
0.0316875
0.0251759
0.0191131
0.0134023
0.00794288
0.00263165
0.189673
0.567521
0.940529
1.3044
1.6535
1.98088
2.27875
2.53929
2.75572
2.92324
3.03958
3.10516
3.12276
3.09696
3.03356
2.93898
2.81985
2.68266
2.53347
2.37771
2.22002
2.06414
1.91294
1.76846
1.63208
1.50461
1.3864
1.27746
1.17746
1.08584
1.00187
0.924717
0.853517
0.787479
0.725913
0.668254
0.614062
0.563013
0.514878
0.469515
0.426844
0.386831
0.349463
0.314725
0.28258
0.252963
0.225777
0.200905
0.178212
0.157554
0.138783
0.121751
0.106311
0.0923151
0.0796223
0.0680964
0.0576087
0.0480373
0.0392652
0.0311771
0.023656
0.0165803
0.00982349
0.00325441
0.229053
0.685748
1.13769
1.58012
2.00626
2.40727
2.77287
3.09256
3.35719
3.56034
3.69917
3.77447
3.79014
3.75237
3.66874
3.5475
3.39701
3.22538
3.04013
2.84798
2.65458
2.46442
2.28083
2.10615
1.94186
1.78882
1.64734
1.51732
1.39832
1.28958
1.19011
1.09882
1.0146
0.93644
0.863487
0.795061
0.730644
0.669866
0.612473
0.558315
0.507322
0.459482
0.414806
0.373297
0.334922
0.299605
0.267225
0.237633
0.210659
0.186126
0.163853
0.143661
0.12537
0.108804
0.0937883
0.080161
0.0677681
0.0564659
0.0461179
0.0365893
0.0277427
0.0194331
0.0115094
0.00381244
0.267459
0.801317
1.33127
1.85241
2.35689
2.83374
3.26965
3.65075
3.96486
4.2036
4.36352
4.44603
4.45659
4.40337
4.29604
4.14488
3.96011
3.75156
3.52829
3.29836
3.06844
2.84372
2.62793
2.42357
2.23216
2.05448
1.89079
1.74087
1.6041
1.4795
1.36579
1.26157
1.16543
1.07613
0.992653
0.914203
0.840206
0.770257
0.704091
0.641559
0.582616
0.527285
0.475619
0.427652
0.383361
0.342656
0.305389
0.271372
0.240399
0.212256
0.18673
0.163611
0.142688
0.123753
0.106604
0.091048
0.0769089
0.0640239
0.0522397
0.0414056
0.0313664
0.0219551
0.0129968
0.00430442
0.304697
0.913722
1.52063
2.12084
2.70555
3.26135
3.77122
4.21692
4.58241
4.85686
5.03624
5.12303
5.12475
5.05206
4.9171
4.73238
4.5101
4.26184
3.99833
3.72903
3.46167
3.20211
2.95433
2.72085
2.50311
2.30177
2.11694
1.94829
1.795
1.65584
1.52921
1.41329
1.30636
1.20691
1.11374
1.02598
0.943021
0.864432
0.789946
0.71943
0.652873
0.590353
0.531988
0.477856
0.427951
0.382166
0.340316
0.302168
0.267474
0.235981
0.207446
0.181629
0.158291
0.13719
0.118092
0.100777
0.0850464
0.0707216
0.0576367
0.0456287
0.0345274
0.0241454
0.0142848
0.00473
0.340471
1.02215
1.70469
2.38439
3.05174
3.69058
4.27924
4.79382
5.21321
5.52359
5.72049
5.80805
5.79659
5.69991
5.53302
5.3108
5.04751
4.75656
4.45038
4.13999
3.83427
3.53961
3.26012
2.99817
2.75495
2.53093
2.32606
2.13984
1.97131
1.81894
1.68073
1.55441
1.43783
1.32918
1.22714
1.13075
1.03941
0.952675
0.870293
0.792148
0.718274
0.648829
0.584021
0.523999
0.468773
0.418212
0.372081
0.330094
0.291952
0.257365
0.226059
0.197768
0.172225
0.149156
0.128292
0.109383
0.0922094
0.076581
0.0623242
0.0492682
0.0372312
0.0260069
0.0153746
0.00508954
0.374384
1.12548
1.88184
2.64141
3.39431
4.12134
4.79499
5.38398
5.86051
6.20705
6.41904
6.50316
6.47352
6.34784
6.14437
5.88054
5.57261
5.23579
4.88437
4.5311
4.1861
3.85622
3.54545
3.25579
2.98803
2.74233
2.51848
2.31587
2.13337
1.96918
1.82082
1.68542
1.56033
1.44345
1.33329
1.22891
1.12972
1.0353
0.945416
0.859962
0.779026
0.702875
0.631847
0.566187
0.505926
0.450893
0.400786
0.355249
0.313926
0.27649
0.242642
0.212094
0.184553
0.159711
0.13726
0.116914
0.0984377
0.0816326
0.066324
0.0523388
0.039487
0.0275448
0.0162692
0.00538393
0.405954
1.22234
2.05005
2.88966
3.73148
4.553
5.31949
5.98993
6.52758
6.91038
7.13434
7.20993
7.15637
6.99619
6.7513
6.44167
6.08543
5.69947
5.30005
4.90205
4.51695
4.15191
3.81049
3.49404
3.20275
2.9364
2.69463
2.47675
2.28157
2.107
1.94998
1.8069
1.67445
1.55022
1.43266
1.32086
1.21431
1.11264
1.01562
0.923142
0.835356
0.752665
0.6756
0.604538
0.539525
0.480327
0.42655
0.377748
0.333505
0.293457
0.257285
0.224686
0.195348
0.168926
0.14506
0.123429
0.103779
0.085913
0.0696626
0.0548584
0.0413065
0.0287664
0.0169722
0.0056144
0.43463
1.31113
2.20689
3.1263
4.06076
4.98438
5.85354
6.61428
7.21785
7.63667
7.86852
7.92947
7.84542
7.64483
7.35358
6.99403
6.58588
6.14742
5.69708
5.25241
4.82656
4.42669
4.05549
3.71336
3.39965
3.11368
2.85499
2.62293
2.41632
2.23286
2.06879
1.91946
1.7808
1.65008
1.52574
1.40701
1.29355
1.18504
1.08121
0.981976
0.887503
0.798379
0.715414
0.639169
0.569693
0.506645
0.449508
0.397727
0.350814
0.308376
0.270083
0.235628
0.204689
0.176876
0.151767
0.128992
0.108287
0.0894632
0.0723692
0.0568469
0.0427029
0.0296798
0.0174883
0.00578248
0.459812
1.39009
2.34956
3.34793
4.379
5.41375
6.39777
7.25993
7.93507
8.38902
8.62345
8.66239
8.54037
8.29314
7.95065
7.53726
7.07381
6.57945
6.07499
5.58162
5.11458
4.68058
4.2808
3.91429
3.57936
3.27478
3.00011
2.75485
2.53801
2.34722
2.17784
2.0238
1.88004
1.7436
1.61301
1.48778
1.3678
1.25282
1.14252
1.03677
0.935719
0.840193
0.751412
0.670196
0.596557
0.529988
0.46981
0.415331
0.365986
0.321365
0.281138
0.24501
0.212659
0.183648
0.157463
0.133677
0.112019
0.0923266
0.0744746
0.0583252
0.0436898
0.030294
0.0178225
0.00588985
0.48088
1.45734
2.47499
3.55062
4.68229
5.83868
6.95266
7.93024
8.68346
9.17054
9.40064
9.40878
9.24035
8.94003
8.54166
8.07089
7.54915
6.99545
6.43325
5.88899
5.38068
4.91369
4.48684
4.09752
3.74262
3.42037
3.13056
2.87297
2.64701
2.45053
2.27779
2.12067
1.97288
1.83137
1.69495
1.56352
1.43739
1.31632
1.19987
1.08783
0.980268
0.878273
0.7837
0.697726
0.620251
0.550506
0.487616
0.430719
0.379162
0.332548
0.290555
0.252918
0.219341
0.189328
0.162237
0.137558
0.115035
0.0945476
0.0760097
0.0593138
0.044281
0.0306179
0.0179804
0.00593838
0.497225
1.511
2.57993
3.72996
4.96591
6.25599
7.51855
8.62924
9.46796
9.98434
10.2012
10.1682
9.94381
9.58398
9.12555
8.59437
8.01196
7.39545
6.77119
6.17361
5.62445
5.12622
4.67417
4.26383
3.89031
3.5512
3.24698
2.97775
2.74362
2.54319
2.36932
2.2109
2.06003
1.914
1.77203
1.63459
1.50263
1.37584
1.25358
1.13551
1.02143
0.912773
0.812355
0.721859
0.640915
0.568359
0.503098
0.444056
0.390489
0.342051
0.298439
0.259434
0.224813
0.194008
0.166182
0.140717
0.117397
0.0961707
0.0770045
0.0598324
0.0444898
0.0306611
0.0179675
0.0059301
0.508287
1.54926
2.66111
3.88114
5.22434
6.66156
8.09561
9.362
10.2944
10.8334
11.0259
10.9396
10.6485
10.2231
9.7011
9.10707
8.46259
7.77979
7.08805
6.43435
5.84551
5.31855
4.84343
4.41416
4.0234
3.66805
3.35003
3.06964
2.82804
2.62552
2.45319
2.2954
2.14222
1.99205
1.84466
1.70126
1.5638
1.43169
1.30394
1.18016
1.05952
0.943818
0.837415
0.742681
0.658694
0.583709
0.516437
0.455519
0.400113
0.350001
0.304893
0.264633
0.229148
0.197784
0.1694
0.143233
0.119164
0.0972389
0.0774874
0.0598992
0.0443292
0.0304328
0.0177902
0.00586719
0.513588
1.57053
2.71534
3.99907
5.45113
7.05007
8.68369
10.1349
11.1697
11.7202
11.8748
11.7216
11.3515
10.8551
10.2671
9.60825
8.9018
8.14926
7.38282
6.66965
6.04353
5.49125
4.99539
4.54958
4.14302
3.77173
3.44043
3.14913
2.90031
2.69771
2.53026
2.37521
2.22018
2.06608
1.91325
1.76373
1.62114
1.48416
1.35126
1.22218
1.09487
0.971498
0.858859
0.760272
0.673754
0.596724
0.527822
0.465294
0.408175
0.356526
0.310022
0.268576
0.232406
0.200755
0.172002
0.14519
0.120394
0.0977937
0.0774844
0.0595303
0.043811
0.0299428
0.0174551
0.005752
0.512772
1.57349
2.73973
4.07856
5.63896
7.41474
9.28211
10.9564
12.1025
12.6465
12.7475
12.5123
12.0487
11.4776
10.8223
10.0969
9.33092
8.50532
7.65417
6.87745
6.21829
5.64524
5.1308
4.67132
4.25043
3.86297
3.51898
3.21674
2.96029
2.7598
2.6015
2.45153
2.29454
2.13663
1.9782
1.8221
1.67486
1.53353
1.39575
1.26201
1.12791
0.995849
0.87659
0.774711
0.686282
0.607567
0.537453
0.473576
0.414806
0.361753
0.31393
0.271307
0.234633
0.203027
0.17411
0.146667
0.12114
0.0978746
0.0770187
0.0587397
0.0429466
0.0292013
0.0169692
0.00558712
0.505631
1.55724
2.73185
4.1145
5.77963
7.74689
9.88927
11.8375
13.1034
13.6124
13.6428
13.3097
12.7348
12.0882
11.3658
10.5716
9.75204
8.85043
7.90019
7.0549
6.36983
5.7819
5.25036
4.78076
4.3471
3.94235
3.58654
3.27311
3.00753
2.81155
2.66813
2.52578
2.36582
2.20418
2.03988
1.87631
1.72516
1.5801
1.43756
1.30017
1.15913
1.01682
0.890406
0.78609
0.696509
0.616384
0.545539
0.480577
0.420118
0.36581
0.316732
0.272847
0.23585
0.204718
0.175863
0.147737
0.121447
0.0975197
0.0761103
0.0575382
0.0417467
0.0282191
0.0163406
0.00537533
0.492131
1.52136
2.68991
4.10216
5.86419
8.03557
10.502
12.7928
14.1857
14.6151
14.5591
14.1122
13.4028
12.6846
11.8975
11.0297
10.1683
9.18848
8.1181
7.1981
6.49868
5.90326
5.35445
4.87947
4.43476
4.01018
3.64414
3.3191
3.0412
2.85234
2.73166
2.5997
2.43425
2.26923
2.09875
1.9261
1.77227
1.62422
1.4767
1.33727
1.1892
1.03425
0.899967
0.794538
0.704729
0.623285
0.552303
0.486531
0.424184
0.368828
0.318556
0.273184
0.236048
0.205963
0.177423
0.14846
0.121354
0.0967675
0.0747752
0.0559339
0.0402219
0.0270082
0.015578
0.00511966
0.472421
1.46599
2.61295
4.03748
5.88316
8.267
11.1144
13.8422
15.3664
15.6475
15.4944
14.9194
14.0429
13.2652
12.4181
11.4668
10.5843
9.52544
8.30375
7.30168
6.60618
6.01226
5.44281
4.96929
4.51554
4.06618
3.69303
3.35595
3.05993
2.88104
2.79413
2.67545
2.49964
2.33225
2.15538
1.97087
1.81644
1.66633
1.5129
1.37406
1.21899
1.0478
0.904749
0.800257
0.711327
0.628307
0.557986
0.491711
0.427019
0.37095
0.319565
0.272265
0.235177
0.206923
0.178984
0.148876
0.120888
0.0956597
0.0730245
0.0539313
0.0383828
0.0255817
0.0146913
0.00482334
0.446835
1.39183
2.50098
3.91739
5.82688
8.42422
11.7166
15.0121
16.6673
16.6947
16.4471
15.7329
14.6413
13.8302
12.9304
11.8753
11.0064
9.87019
8.4509
7.35835
6.69492
6.11311
5.51406
5.05245
4.59218
4.1092
3.73479
3.38552
3.06165
2.89577
2.85825
2.75579
2.561
2.39383
2.21058
2.00953
1.85808
1.70706
1.54551
1.41149
1.24972
1.05687
0.903992
0.803579
0.716823
0.631356
0.562865
0.49645
0.428541
0.372335
0.319969
0.269978
0.233125
0.207803
0.18078
0.148983
0.120064
0.0942457
0.0708629
0.051531
0.0362409
0.0239548
0.0136913
0.00448981
0.415878
1.30016
2.35506
3.74021
5.68609
8.48667
12.2921
16.3382
18.1172
17.7308
17.4171
16.5586
15.1781
14.3816
13.4399
12.2424
11.4439
10.2356
8.55031
7.35828
6.76946
6.21174
5.5648
5.13179
4.66835
4.13662
3.77154
3.41058
3.04331
2.89362
2.92778
2.84429
2.61618
2.45476
2.26563
2.04022
1.89785
1.74734
1.5732
1.4508
1.28303
1.06049
0.896638
0.805031
0.721919
0.632128
0.567272
0.501175
0.428521
0.373178
0.32006
0.266134
0.22971
0.208863
0.183104
0.148727
0.118888
0.0925897
0.068286
0.0487295
0.0338096
0.0221445
0.0125898
0.00412274
0.380203
1.19276
2.17733
3.50595
5.45263
8.4302
12.8147
17.8685
19.7539
18.7133
18.4077
17.4085
15.6239
14.9256
13.9566
12.5473
11.9097
10.6403
8.58834
7.28846
6.83715
6.31637
5.5886
5.21119
4.74907
4.14356
3.80621
3.43527
3.00063
2.87032
3.00787
2.94565
2.66124
2.51622
2.32246
2.05998
1.93682
1.7886
1.59371
1.49363
1.32122
1.05717
0.881256
0.80544
0.727567
0.629988
0.571633
0.506455
0.426504
0.37373
0.320245
0.260436
0.224648
0.210449
0.186328
0.147961
0.117357
0.0907799
0.0652749
0.0455195
0.0311048
0.0201702
0.0113999
0.003726
0.340574
1.07188
1.971
3.21658
5.12038
8.22745
13.2435
19.6668
21.6285
19.5751
19.4283
18.3042
15.9354
15.4745
14.4974
12.7573
12.4219
11.1099
8.54519
7.13198
6.90923
6.4383
5.57431
5.29608
4.84143
4.12185
3.84292
3.46563
2.92763
2.81971
3.10559
3.06606
2.6896
2.58015
2.38408
2.06414
1.97674
1.83299
1.6033
1.54224
1.36743
1.04468
0.855964
0.806052
0.735054
0.623797
0.576528
0.51307
0.421705
0.374336
0.321095
0.252451
0.217528
0.213019
0.19092
0.146411
0.115469
0.0889401
0.0617895
0.0418903
0.0281468
0.0180535
0.0101355
0.00330374
0.297828
0.940063
1.74019
2.87623
4.68633
7.84899
13.5176
21.8178
23.8094
20.2148
20.4988
19.2812
16.0488
16.0493
15.0882
12.8223
13.0061
11.6802
8.39259
6.86724
7.00215
6.59291
5.50401
5.39431
4.95537
4.05848
3.88754
3.51019
2.81624
2.73324
3.2305
3.21378
2.69089
2.64967
2.45497
2.04564
2.02037
1.88375
1.59617
1.59972
1.42592
1.01978
0.818361
0.808679
0.746108
0.611693
0.582777
0.522098
0.412865
0.375486
0.323401
0.241558
0.207782
0.217181
0.197481
0.143622
0.11324
0.087245
0.0577571
0.0378295
0.0249616
0.015818
0.00881167
0.0028606
0.252833
0.80005
1.48978
2.49116
4.15168
7.26552
13.5471
24.4325
26.3887
20.4836
21.6553
20.3935
15.8714
16.684
15.7686
12.6678
13.6982
12.3989
8.09086
6.46729
7.13912
6.80084
5.3502
5.51735
5.10482
3.9337
3.94845
3.58079
2.65571
2.59925
3.39538
3.3998
2.64955
2.72971
2.54175
1.99399
2.07193
1.94564
1.56361
1.67037
1.5024
0.977874
0.765452
0.81587
0.763032
0.590794
0.591563
0.535027
0.398062
0.377888
0.328241
0.226892
0.194649
0.223736
0.206777
0.138881
0.110723
0.0859363
0.0530568
0.0333267
0.0215826
0.0134887
0.00744446
0.00240188
0.206447
0.654637
1.22512
2.06964
3.52291
6.45147
13.203
27.6548
29.4908
20.1686
22.9579
21.7208
15.2705
17.4306
16.5959
12.1861
14.5485
13.3295
7.58529
5.89925
7.35176
7.08962
5.07233
5.68188
5.30905
3.7185
4.03761
3.69338
2.43197
2.40219
3.61707
3.63869
2.54288
2.82793
2.65382
1.89401
2.13775
2.02549
1.49296
1.76014
1.60436
0.912565
0.693608
0.831097
0.78887
0.556823
0.604599
0.553896
0.374464
0.382569
0.337053
0.207282
0.177134
0.233731
0.219786
0.131137
0.108045
0.0853415
0.0474992
0.0283795
0.0180519
0.0110909
0.00605099
0.00193406
0.15948
0.506542
0.951779
1.62156
2.81256
5.39037
12.3046
31.6689
33.2822
18.9718
24.5012
23.3754
14.0592
18.366
17.6514
11.2248
15.6263
14.5539
6.80179
5.12401
7.68188
7.49553
4.61241
5.91184
5.59439
3.37153
4.17192
3.86885
2.12696
2.12173
3.91728
3.94975
2.33879
2.9558
2.80429
1.72421
2.22701
2.13293
1.36627
1.87726
1.7415
0.815153
0.598554
0.858946
0.827611
0.50365
0.624347
0.581456
0.338034
0.391011
0.351709
0.181164
0.153973
0.248506
0.237748
0.118884
0.105456
0.0858929
0.0407996
0.0230022
0.0144222
0.00864932
0.00464979
0.00146529
0.112668
0.358287
0.675211
1.15783
2.03953
4.08251
10.6039
36.7076
37.9843
16.4861
26.427
25.5114
11.98
19.5999
19.0468
9.5735
17.027
16.1764
5.6419
4.09632
8.18308
8.06601
3.88982
6.24106
5.99607
2.83534
4.37496
4.13392
1.71787
1.73178
4.32356
4.35832
1.99299
3.13003
3.01096
1.45482
2.35272
2.28114
1.15875
2.03298
1.92608
0.674016
0.47541
0.905301
0.884441
0.422739
0.654291
0.621367
0.283156
0.405322
0.374597
0.146494
0.123595
0.269753
0.26223
0.100036
0.103395
0.0881452
0.0325447
0.0172397
0.0107563
0.00618563
0.00326121
0.00100601
0.0666484
0.212107
0.400494
0.689709
1.22851
2.55498
7.76688
43.0607
43.8888
12.1655
28.9398
28.3339
8.68398
21.2852
20.9327
6.94793
18.8799
18.3266
3.97701
2.76536
8.92226
8.86248
2.7953
6.71639
6.56043
2.03201
4.6792
4.52186
1.17646
1.19953
4.87015
4.89739
1.44579
3.3743
3.29743
1.0455
2.53287
2.48783
0.836859
2.24254
2.17339
0.473921
0.318794
0.977495
0.966035
0.302502
0.699276
0.678402
0.20221
0.428459
0.408683
0.10065
0.0840916
0.299571
0.295197
0.0717695
0.102573
0.0927899
0.0221544
0.0111856
0.00712686
0.0037169
0.00190788
0.000569642
0.0219541
0.0698939
0.132091
0.227953
0.408424
0.874592
3.3533
51.0845
51.3753
5.29207
32.3252
32.1096
3.70888
23.6291
23.5068
2.97203
21.3576
21.1627
1.6422
1.07605
9.98056
9.96374
1.18397
7.40141
7.34731
0.858148
5.12869
5.07307
0.468282
0.484334
5.59881
5.60956
0.618362
3.72126
3.69433
0.442679
2.79177
2.77627
0.356239
2.52632
2.50205
0.195264
0.123017
1.08442
1.08092
0.127573
0.765901
0.758677
0.0850833
0.464489
0.457568
0.0403255
0.0331935
0.340511
0.339098
0.0303541
0.104079
0.100666
0.00883671
0.00500633
0.00361341
0.00125325
0.00061532
0.00017292
)
;

boundaryField
{
    left
    {
        type            calculated;
        value           uniform 0;
    }
    right
    {
        type            calculated;
        value           uniform 0;
    }
    interface
    {
        type            calculated;
        value           nonuniform List<scalar> 
64
(
0.0219541
0.0698939
0.132091
0.227953
0.408424
0.874592
3.3533
51.0845
51.3753
5.29207
32.3252
32.1096
3.70888
23.6291
23.5068
2.97203
21.3576
21.1627
1.6422
1.07605
9.98056
9.96374
1.18397
7.40141
7.34731
0.858148
5.12869
5.07307
0.468282
0.484334
5.59881
5.60956
0.618362
3.72126
3.69433
0.442679
2.79177
2.77627
0.356239
2.52632
2.50205
0.195264
0.123017
1.08442
1.08092
0.127573
0.765901
0.758677
0.0850833
0.464489
0.457568
0.0403255
0.0331935
0.340511
0.339098
0.0303541
0.104079
0.100666
0.00883671
0.00500633
0.00361341
0.00125325
0.00061532
0.00017292
)
;
    }
    bottom
    {
        type            calculated;
        value           nonuniform List<scalar> 
64
(
0.0222191
0.0664104
0.109839
0.151927
0.192017
0.22938
0.263257
0.292917
0.317738
0.337269
0.351279
0.359776
0.36299
0.36134
0.355387
0.345783
0.333224
0.318405
0.301993
0.284595
0.266742
0.248879
0.231361
0.21446
0.198366
0.183205
0.169044
0.155904
0.143767
0.132586
0.122294
0.11281
0.104049
0.0959297
0.0883751
0.0813202
0.0747115
0.068507
0.0626754
0.0571946
0.0520495
0.0472305
0.0427305
0.0385433
0.0346623
0.0310785
0.0277813
0.0247575
0.0219924
0.01947
0.0171735
0.0150859
0.0131898
0.0114683
0.00990462
0.00848269
0.00718693
0.00600229
0.00491412
0.00390797
0.00296933
0.00208347
0.00123528
0.000409343
)
;
    }
    defaultFaces
    {
        type            empty;
    }
}


// ************************************************************************* //
