/*--------------------------------*- C++ -*----------------------------------*\
| =========                 |                                                 |
| \\      /  F ield         | OpenFOAM: The Open Source CFD Toolbox           |
|  \\    /   O peration     | Version:  5.x                                   |
|   \\  /    A nd           | Web:      www.OpenFOAM.org                      |
|    \\/     M anipulation  |                                                 |
\*---------------------------------------------------------------------------*/
FoamFile
{
    version     2.0;
    format      ascii;
    class       volScalarField;
    location    "8";
    object      gradTy;
}
// * * * * * * * * * * * * * * * * * * * * * * * * * * * * * * * * * * * * * //

dimensions      [0 -1 0 1 0 0 0];

internalField   nonuniform List<scalar> 
2048
(
-20.1677
-20.071
-19.8787
-19.5931
-19.2176
-18.7573
-18.219
-17.6111
-16.9437
-16.2279
-15.4757
-14.6994
-13.9108
-13.1213
-12.3409
-11.5782
-10.8406
-10.1336
-9.46143
-8.82685
-8.23135
-7.67536
-7.15847
-6.67958
-6.2371
-5.82912
-5.45353
-5.10812
-4.79068
-4.49909
-4.23135
-3.98561
-3.76019
-3.55361
-3.36454
-3.19177
-3.03424
-2.89098
-2.76107
-2.64365
-2.53789
-2.443
-2.35818
-2.28268
-2.21572
-2.15658
-2.10455
-2.05895
-2.01914
-1.98452
-1.95453
-1.92866
-1.90644
-1.88745
-1.87131
-1.85769
-1.84628
-1.83683
-1.82912
-1.82297
-1.81823
-1.81477
-1.81251
-1.8114
-20.2459
-20.1483
-19.9543
-19.6658
-19.2861
-18.8204
-18.2753
-17.6593
-16.9828
-16.2573
-15.4952
-14.7092
-13.9116
-13.1139
-12.3265
-11.558
-10.8158
-10.1054
-9.43103
-8.79523
-8.19937
-7.64373
-7.12772
-6.65011
-6.20918
-5.80291
-5.4291
-5.08547
-4.76975
-4.47979
-4.21354
-3.96914
-3.74494
-3.53943
-3.35132
-3.17942
-3.02268
-2.88015
-2.75094
-2.63418
-2.52908
-2.43482
-2.35063
-2.27573
-2.20937
-2.1508
-2.09932
-2.05424
-2.01491
-1.98074
-1.95117
-1.92568
-1.9038
-1.88512
-1.86925
-1.85586
-1.84466
-1.83539
-1.82783
-1.8218
-1.81715
-1.81377
-1.81156
-1.81047
-20.3944
-20.2954
-20.098
-19.8042
-19.4169
-18.9408
-18.3827
-17.7513
-17.0573
-16.3131
-15.532
-14.7274
-13.9125
-13.0992
-12.2983
-11.5188
-10.7679
-10.0513
-9.37276
-8.73477
-8.13835
-7.58347
-7.06924
-6.59415
-6.15623
-5.75327
-5.38288
-5.04265
-4.73023
-4.44335
-4.17993
-3.9381
-3.71617
-3.51269
-3.32638
-3.1561
-3.00085
-2.8597
-2.73179
-2.61629
-2.51241
-2.41935
-2.33634
-2.2626
-2.19736
-2.13988
-2.08944
-2.04534
-2.00693
-1.97362
-1.94483
-1.92005
-1.89882
-1.88072
-1.86536
-1.85243
-1.84162
-1.83268
-1.82541
-1.81961
-1.81514
-1.81189
-1.80977
-1.80872
-20.6051
-20.504
-20.3023
-20.0012
-19.6033
-19.1127
-18.5361
-17.8824
-17.1633
-16.3921
-15.5834
-14.7521
-13.9122
-13.0766
-12.2566
-11.4615
-10.6985
-9.97313
-9.28903
-8.64819
-8.05125
-7.49771
-6.98623
-6.51489
-6.0814
-5.68323
-5.31778
-4.98245
-4.67473
-4.39224
-4.13284
-3.8946
-3.67587
-3.47521
-3.29141
-3.12338
-2.97019
-2.83096
-2.70486
-2.59112
-2.48895
-2.39758
-2.31623
-2.24413
-2.18049
-2.12455
-2.07557
-2.03286
-1.99576
-1.96364
-1.93596
-1.91219
-1.89187
-1.87458
-1.85995
-1.84765
-1.83739
-1.82892
-1.82204
-1.81656
-1.81235
-1.80928
-1.80729
-1.8063
-20.8705
-20.7671
-20.5605
-20.2509
-19.8401
-19.3316
-18.7314
-18.0492
-17.2975
-16.4913
-15.647
-14.7811
-13.9092
-13.0452
-12.2011
-11.3864
-10.6083
-9.87234
-9.1816
-8.53764
-7.94051
-7.38909
-6.88145
-6.41515
-5.98746
-5.59553
-5.23645
-4.90739
-4.60566
-4.32874
-4.07439
-3.84064
-3.62586
-3.42868
-3.24795
-3.08268
-2.93201
-2.79513
-2.67127
-2.5597
-2.45965
-2.37039
-2.29113
-2.22108
-2.15945
-2.10544
-2.05832
-2.01735
-1.98188
-1.95127
-1.92497
-1.90246
-1.88328
-1.867
-1.85327
-1.84175
-1.83217
-1.82429
-1.8179
-1.81282
-1.80892
-1.80609
-1.80425
-1.80334
-21.1841
-21.0785
-20.8668
-20.5483
-20.1232
-19.5937
-18.9657
-18.249
-17.4574
-16.6082
-15.7202
-14.8123
-13.9017
-13.0038
-12.1311
-11.2933
-10.4979
-9.7498
-9.05182
-8.40485
-7.80817
-7.25988
-6.75732
-6.29742
-5.87694
-5.49263
-5.14127
-4.81978
-4.52523
-4.25494
-4.00654
-3.77804
-3.56784
-3.37464
-3.19742
-3.0353
-2.8875
-2.75331
-2.63203
-2.52295
-2.42538
-2.33858
-2.26177
-2.19414
-2.13488
-2.08317
-2.03823
-1.99932
-1.96576
-1.93692
-1.91224
-1.8912
-1.87334
-1.85825
-1.84556
-1.83496
-1.82618
-1.81898
-1.81315
-1.80854
-1.805
-1.80244
-1.80078
-1.79995
-21.5398
-21.4325
-21.2163
-20.889
-20.4489
-19.8965
-19.2367
-18.4795
-17.6408
-16.7406
-15.8009
-14.8435
-13.888
-12.951
-12.0456
-11.182
-10.3673
-9.60613
-8.90077
-8.25129
-7.65603
-7.11213
-6.61604
-6.16396
-5.7521
-5.37678
-5.03444
-4.72173
-4.43546
-4.17275
-3.93109
-3.70847
-3.50332
-3.31449
-3.14109
-2.98238
-2.83772
-2.70647
-2.58801
-2.4817
-2.38689
-2.30285
-2.22881
-2.16394
-2.10737
-2.05827
-2.0158
-1.97921
-1.94782
-1.92098
-1.89812
-1.87873
-1.86236
-1.84859
-1.83707
-1.82749
-1.81959
-1.81314
-1.80794
-1.80385
-1.80072
-1.79845
-1.79698
-1.79626
-21.932
-21.8236
-21.6043
-21.2694
-20.8147
-20.238
-19.5427
-18.7393
-17.8458
-16.8862
-15.8867
-14.8726
-13.866
-12.8852
-11.9437
-11.0519
-10.2165
-9.44181
-8.72932
-8.07822
-7.48571
-6.94772
-6.45964
-6.01688
-5.61504
-5.25001
-4.91793
-4.61514
-4.33819
-4.08394
-3.84972
-3.63346
-3.43371
-3.24948
-3.08008
-2.92496
-2.7836
-2.65547
-2.54002
-2.43668
-2.34484
-2.26382
-2.19283
-2.13101
-2.07744
-2.03121
-1.99148
-1.95745
-1.92843
-1.90377
-1.88291
-1.86532
-1.85056
-1.83823
-1.82798
-1.8195
-1.81256
-1.80692
-1.80241
-1.79887
-1.79618
-1.79423
-1.79298
-1.79236
-22.3549
-22.2468
-22.0263
-21.6862
-21.2183
-20.617
-19.8832
-19.0275
-18.0711
-17.0432
-15.9752
-14.897
-13.8337
-12.8048
-11.8245
-10.9026
-10.0456
-9.25718
-8.53823
-7.88683
-7.29873
-6.76841
-6.29003
-5.85811
-5.46766
-5.11419
-4.79354
-4.50176
-4.23511
-3.99013
-3.76393
-3.5544
-3.36025
-3.18073
-3.01541
-2.86395
-2.72597
-2.60106
-2.48874
-2.38852
-2.29983
-2.22204
-2.15435
-2.09585
-2.04553
-2.00244
-1.96567
-1.93441
-1.90794
-1.88562
-1.86688
-1.85122
-1.83819
-1.82739
-1.81847
-1.81117
-1.80523
-1.80046
-1.79666
-1.79371
-1.79148
-1.78988
-1.78884
-1.78833
-22.8031
-22.6969
-22.4783
-22.1364
-21.6582
-21.0329
-20.2579
-19.3437
-18.3156
-17.2094
-16.064
-14.9144
-13.789
-12.7085
-11.6868
-10.7335
-9.85443
-9.05258
-8.32822
-7.67822
-7.09657
-6.57591
-6.10904
-5.68949
-5.31175
-4.97101
-4.66289
-4.38316
-4.12774
-3.89279
-3.67512
-3.47256
-3.28405
-3.10921
-2.94793
-2.80012
-2.66557
-2.54392
-2.4348
-2.33778
-2.25236
-2.17798
-2.11382
-2.05889
-2.01208
-1.97235
-1.93874
-1.91041
-1.88664
-1.86679
-1.85029
-1.83666
-1.82543
-1.81623
-1.80871
-1.80262
-1.79774
-1.79385
-1.79081
-1.78847
-1.78671
-1.78546
-1.78466
-1.78426
-23.2711
-23.1689
-22.9561
-22.6173
-22.1332
-21.4859
-20.6677
-19.6882
-18.5781
-17.383
-16.1505
-14.9222
-13.7298
-12.5946
-11.53
-10.5445
-9.64311
-8.8283
-8.09991
-7.45347
-6.88069
-6.37194
-5.91843
-5.51277
-5.14895
-4.82202
-4.52744
-4.26073
-4.01747
-3.79329
-3.58457
-3.38908
-3.20612
-3.03579
-2.87841
-2.73417
-2.60301
-2.48463
-2.37873
-2.28494
-2.20287
-2.13204
-2.07163
-2.02051
-1.97746
-1.9413
-1.91101
-1.88575
-1.86479
-1.84751
-1.83335
-1.82181
-1.81246
-1.80491
-1.79883
-1.79399
-1.79017
-1.78721
-1.78493
-1.78321
-1.78195
-1.78105
-1.78048
-1.7802
-23.7532
-23.6577
-23.4557
-23.1264
-22.6424
-21.9768
-21.1139
-20.0616
-18.8579
-17.5616
-16.2319
-14.9176
-13.6538
-12.4619
-11.3534
-10.3354
-9.41178
-8.58465
-7.8539
-7.21365
-6.6526
-6.1582
-5.71996
-5.32961
-4.98077
-4.66858
-4.38846
-4.13571
-3.90553
-3.6929
-3.49348
-3.30498
-3.12729
-2.96119
-2.80747
-2.66667
-2.53884
-2.4237
-2.32099
-2.23043
-2.15173
-2.08457
-2.02812
-1.98108
-1.94199
-1.90958
-1.88278
-1.8607
-1.84264
-1.828
-1.81624
-1.80686
-1.79943
-1.79356
-1.78894
-1.78536
-1.78263
-1.7806
-1.77911
-1.77802
-1.77724
-1.77671
-1.77638
-1.77621
-24.2439
-24.1582
-23.9728
-23.6609
-23.1855
-22.5072
-21.599
-20.4655
-19.1541
-17.7427
-16.3051
-14.8976
-13.559
-12.3092
-11.1565
-10.1063
-9.16075
-8.32188
-7.59068
-6.95985
-6.41386
-5.93641
-5.51535
-5.1416
-4.8086
-4.51191
-4.24707
-4.00916
-3.79305
-3.59278
-3.40296
-3.22119
-3.04831
-2.886
-2.73561
-2.59809
-2.47353
-2.36158
-2.26201
-2.17461
-2.09925
-2.03585
-1.98358
-1.94088
-1.90599
-1.87751
-1.85429
-1.83547
-1.82038
-1.80843
-1.79911
-1.79194
-1.78647
-1.7823
-1.77915
-1.77683
-1.77519
-1.7741
-1.77339
-1.77294
-1.77266
-1.77248
-1.77238
-1.77233
-24.7375
-24.665
-24.5032
-24.2184
-23.7621
-23.0791
-22.1264
-20.9018
-19.4657
-17.9233
-16.3666
-14.8592
-13.4434
-12.1357
-10.9394
-9.85763
-8.89057
-8.04019
-7.31064
-6.69315
-6.16616
-5.70835
-5.30627
-4.95026
-4.63368
-4.35308
-4.10423
-3.88196
-3.68098
-3.49406
-3.3141
-3.13852
-2.96978
-2.81072
-2.66324
-2.52883
-2.4075
-2.29865
-2.20216
-2.11781
-2.04567
-1.98609
-1.93828
-1.90021
-1.86974
-1.84532
-1.8258
-1.81028
-1.79818
-1.78896
-1.78211
-1.77717
-1.77368
-1.77123
-1.76953
-1.76846
-1.76791
-1.76775
-1.76783
-1.76802
-1.76822
-1.7684
-1.76853
-1.7686
-25.2283
-25.1729
-25.0422
-24.7958
-24.3719
-23.6957
-22.7008
-21.3735
-19.7912
-18.0999
-16.4129
-14.7989
-13.3049
-11.9412
-10.7022
-9.59018
-8.60206
-7.73963
-7.0139
-6.41473
-5.91138
-5.47583
-5.09441
-4.75708
-4.45708
-4.19297
-3.96075
-3.75481
-3.57016
-3.39782
-3.22795
-3.05769
-2.89217
-2.73572
-2.59066
-2.45921
-2.34112
-2.23527
-2.14176
-2.06032
-1.99117
-1.93545
-1.89242
-1.85934
-1.83349
-1.81326
-1.79749
-1.78528
-1.77619
-1.76971
-1.76534
-1.76265
-1.76117
-1.76043
-1.76015
-1.7603
-1.76082
-1.7616
-1.76247
-1.76329
-1.76397
-1.7645
-1.76485
-1.76503
-25.7109
-25.6764
-25.5851
-25.3899
-25.0148
-24.3604
-23.3285
-21.8846
-20.1282
-18.2678
-16.44
-14.713
-13.1418
-11.7256
-10.4453
-9.30516
-8.29645
-7.41995
-6.70026
-6.12582
-5.65168
-5.24066
-4.88135
-4.56348
-4.27971
-4.03231
-3.81732
-3.62817
-3.46125
-3.30518
-3.14564
-2.97924
-2.8158
-2.66129
-2.51801
-2.38946
-2.27472
-2.17172
-2.08114
-2.00243
-1.93586
-1.88401
-1.8462
-1.81853
-1.79747
-1.78153
-1.76955
-1.76062
-1.75452
-1.75079
-1.74889
-1.74846
-1.74901
-1.74997
-1.75107
-1.75239
-1.75397
-1.75569
-1.75734
-1.75879
-1.75993
-1.76079
-1.76137
-1.76165
-26.1799
-26.1703
-26.1269
-25.9969
-25.6899
-25.0773
-24.0175
-22.4407
-20.4731
-18.4214
-16.4442
-14.5973
-12.9523
-11.4901
-10.1695
-9.00416
-7.97562
-7.0804
-6.369
-5.82786
-5.38963
-5.00455
-4.66862
-4.37095
-4.10223
-3.87166
-3.67457
-3.50226
-3.35476
-3.21729
-3.06836
-2.90358
-2.74083
-2.58768
-2.44536
-2.31976
-2.20869
-2.10826
-2.02058
-1.94444
-1.87978
-1.83178
-1.79979
-1.77806
-1.7619
-1.75031
-1.74216
-1.73642
-1.73327
-1.73229
-1.73281
-1.73466
-1.73728
-1.73993
-1.74231
-1.74475
-1.74738
-1.75003
-1.75247
-1.75453
-1.75612
-1.75729
-1.75808
-1.75847
-26.6305
-26.6494
-26.6622
-26.6124
-26.3959
-25.8511
-24.7782
-23.0495
-20.8196
-18.5538
-16.4226
-14.447
-12.7352
-11.2369
-9.87496
-8.68928
-7.64242
-6.71945
-6.01866
-5.52255
-5.12847
-4.76904
-4.45761
-4.18107
-3.92497
-3.7114
-3.53314
-3.37695
-3.25093
-3.13548
-2.99755
-2.83081
-2.66724
-2.51513
-2.37258
-2.25023
-2.14341
-2.04504
-1.96037
-1.88668
-1.82285
-1.77866
-1.75336
-1.73823
-1.72696
-1.71976
-1.71547
-1.71274
-1.7125
-1.71428
-1.71717
-1.7213
-1.72604
-1.73036
-1.73392
-1.7374
-1.74105
-1.74464
-1.74788
-1.75053
-1.75254
-1.75401
-1.755
-1.7555
-27.0581
-27.1087
-27.1856
-27.2311
-27.1304
-26.6863
-25.6237
-23.7218
-21.1578
-18.6563
-16.3738
-14.2557
-12.489
-10.97
-9.56155
-8.36304
-7.30129
-6.33425
-5.64675
-5.21211
-4.87236
-4.53512
-4.2495
-3.99576
-3.74778
-3.55177
-3.39388
-3.2517
-3.14972
-3.06125
-2.93499
-2.76066
-2.59479
-2.44401
-2.29934
-2.18092
-2.07944
-1.98211
-1.9008
-1.82965
-1.76487
-1.72444
-1.70712
-1.69943
-1.6928
-1.69001
-1.68965
-1.68963
-1.69226
-1.69684
-1.70197
-1.7084
-1.71536
-1.72133
-1.72589
-1.73032
-1.735
-1.73954
-1.74358
-1.74682
-1.7492
-1.75094
-1.75214
-1.75274
-27.4588
-27.5436
-27.6915
-27.8471
-27.8895
-27.587
-26.5705
-24.4735
-21.4713
-18.7184
-16.2999
-14.015
-12.2126
-10.6964
-9.22724
-8.02841
-6.95925
-5.91989
-5.24945
-4.8995
-4.62688
-4.30292
-4.04519
-3.81752
-3.56978
-3.39283
-3.25808
-3.1253
-3.05072
-2.99646
-2.88302
-2.69221
-2.52303
-2.37496
-2.22498
-2.11184
-2.01755
-1.91927
-1.84214
-1.77404
-1.7054
-1.66878
-1.66128
-1.66212
-1.65949
-1.66114
-1.66488
-1.66709
-1.67257
-1.68006
-1.68721
-1.69596
-1.70529
-1.71292
-1.71821
-1.7235
-1.72922
-1.73474
-1.73958
-1.74339
-1.7461
-1.74809
-1.74949
-1.7502
-27.8293
-27.95
-28.1742
-28.4534
-28.6677
-28.556
-27.6384
-25.3284
-21.7342
-18.7277
-16.2089
-13.7124
-11.9052
-10.4274
-8.8669
-7.68875
-6.62736
-5.46818
-4.82129
-4.58877
-4.39967
-4.07092
-3.84527
-3.64999
-3.38894
-3.23446
-3.12785
-2.99571
-2.953
-2.94337
-2.84492
-2.62353
-2.45124
-2.30918
-2.14833
-2.04294
-1.95893
-1.85601
-1.78466
-1.7209
-1.64371
-1.61116
-1.61618
-1.62694
-1.62698
-1.6332
-1.64142
-1.64503
-1.65343
-1.66405
-1.67284
-1.68397
-1.6959
-1.70521
-1.71087
-1.71691
-1.72371
-1.73024
-1.73591
-1.74028
-1.74324
-1.74546
-1.74704
-1.74788
-28.167
-28.3244
-28.6285
-29.0424
-29.457
-29.594
-28.8513
-26.3221
-21.9057
-18.6696
-16.1182
-13.3284
-11.5658
-10.1809
-8.46986
-7.34773
-6.323
-4.96586
-4.35483
-4.28549
-4.2014
-3.83496
-3.64989
-3.49872
-3.2014
-3.0764
-3.00674
-2.85953
-2.85502
-2.90479
-2.82532
-2.55117
-2.37843
-2.2488
-2.06744
-1.97409
-1.90544
-1.79118
-1.72865
-1.67188
-1.57858
-1.55089
-1.57224
-1.59476
-1.59504
-1.60621
-1.6196
-1.62327
-1.63482
-1.64897
-1.65878
-1.67238
-1.68729
-1.69834
-1.70379
-1.7105
-1.71848
-1.72605
-1.73258
-1.73748
-1.74061
-1.74302
-1.74481
-1.74577
-28.4701
-28.664
-29.0491
-29.6056
-30.2472
-30.6976
-30.2359
-27.5092
-21.9223
-18.528
-16.0607
-12.8323
-11.1936
-9.9857
-8.0164
-7.00923
-6.07318
-4.39189
-3.84063
-3.99714
-4.04703
-3.58665
-3.45878
-3.37227
-3.00049
-2.91829
-2.90055
-2.71143
-2.75454
-2.88413
-2.83097
-2.46933
-2.30339
-2.19749
-1.97906
-1.90514
-1.85996
-1.72271
-1.67434
-1.62956
-1.50808
-1.48709
-1.53005
-1.56676
-1.56314
-1.58012
-1.59995
-1.60147
-1.6167
-1.6351
-1.64487
-1.66114
-1.67953
-1.69247
-1.69687
-1.70421
-1.71353
-1.72217
-1.7296
-1.73504
-1.73818
-1.74077
-1.74278
-1.74388
-28.7377
-28.9667
-29.4317
-30.1347
-31.0253
-31.8586
-31.8209
-28.9723
-21.6878
-18.286
-16.092
-12.1758
-10.788
-9.88569
-7.47266
-6.67723
-5.91919
-3.71348
-3.26748
-3.73345
-3.95775
-3.31124
-3.27128
-3.28392
-2.77524
-2.75965
-2.81853
-2.54322
-2.64854
-2.88536
-2.87173
-2.36874
-2.22475
-2.16125
-1.87802
-1.83589
-1.82698
-1.64708
-1.622
-1.59784
-1.42914
-1.41872
-1.49042
-1.5446
-1.5303
-1.55485
-1.58326
-1.57908
-1.59901
-1.62284
-1.63082
-1.65016
-1.67275
-1.68784
-1.68992
-1.69798
-1.70888
-1.71862
-1.72699
-1.73298
-1.73593
-1.7387
-1.74096
-1.74221
-28.9694
-29.2312
-29.7726
-30.621
-31.7757
-33.0612
-33.6327
-30.8363
-21.0576
-17.9274
-16.3013
-11.2831
-10.3488
-9.94772
-6.78346
-6.35571
-5.92306
-2.88034
-2.62342
-3.50649
-3.9635
-2.98451
-3.08644
-3.25391
-2.50827
-2.6001
-2.77499
-2.34253
-2.53339
-2.91289
-2.96197
-2.23505
-2.14108
-2.14953
-1.75618
-1.76618
-1.81331
-1.55859
-1.57186
-1.58261
-1.3371
-1.34472
-1.45437
-1.5306
-1.49486
-1.5303
-1.57073
-1.55517
-1.58171
-1.61279
-1.61623
-1.63934
-1.66708
-1.68481
-1.68268
-1.69175
-1.70458
-1.71538
-1.72477
-1.73134
-1.73382
-1.73679
-1.73935
-1.74076
-29.1657
-29.4572
-30.069
-31.0566
-32.4812
-34.2808
-35.69
-33.2877
-19.8189
-17.4395
-16.8252
-10.0385
-9.8773
-10.2711
-5.86261
-6.04863
-6.17626
-1.81678
-1.8977
-3.33026
-4.1065
-2.56876
-2.90337
-3.31255
-2.17287
-2.43952
-2.79141
-2.09095
-2.40516
-2.97102
-3.12263
-2.04671
-2.05122
-2.17674
-1.60109
-1.69594
-1.82913
-1.44836
-1.52418
-1.59258
-1.22487
-1.26415
-1.42312
-1.52796
-1.4542
-1.50637
-1.56414
-1.5283
-1.56475
-1.60585
-1.60043
-1.62858
-1.66266
-1.68384
-1.67472
-1.68547
-1.7007
-1.71246
-1.72295
-1.7302
-1.73179
-1.73505
-1.73795
-1.73953
-29.3277
-29.645
-30.3193
-31.4348
-33.1231
-35.4824
-37.994
-36.6014
-17.6637
-16.8173
-17.8655
-8.26814
-9.37733
-11.0004
-4.57997
-5.76003
-6.81094
-0.410794
-1.08447
-3.21932
-4.44593
-2.00744
-2.72173
-3.50416
-1.72908
-2.27842
-2.89917
-1.76154
-2.26041
-3.06311
-3.38382
-1.77209
-1.95463
-2.26411
-1.39412
-1.62541
-1.88925
-1.30303
-1.47924
-1.64031
-1.08193
-1.17657
-1.39802
-1.54113
-1.40434
-1.48303
-1.56608
-1.49633
-1.54817
-1.60334
-1.58242
-1.61781
-1.6596
-1.68562
-1.66541
-1.6791
-1.69733
-1.70981
-1.72154
-1.72965
-1.72974
-1.73345
-1.73676
-1.73851
-29.457
-29.7959
-30.5231
-31.7504
-33.6833
-36.6204
-40.5134
-41.1758
-14.1541
-16.069
-19.7121
-5.7178
-8.85748
-12.3415
-2.74503
-5.49436
-8.01434
1.50034
-0.18862
-3.1863
-5.06419
-1.21838
-2.5425
-3.89214
-1.11864
-2.11855
-3.14298
-1.31548
-2.09749
-3.19011
-3.78844
-1.36587
-1.852
-2.44206
-1.10805
-1.55533
-2.01482
-1.10307
-1.43751
-1.74357
-0.892977
-1.08259
-1.38034
-1.57618
-1.33946
-1.46038
-1.58019
-1.45607
-1.53207
-1.60706
-1.56073
-1.60703
-1.65799
-1.69106
-1.65383
-1.67268
-1.69461
-1.70737
-1.72052
-1.7298
-1.72753
-1.73199
-1.73577
-1.73769
-29.5555
-29.9114
-30.681
-32.0002
-34.1452
-37.6394
-43.1638
-47.5785
-8.67828
-15.2249
-22.769
-2.02395
-8.33446
-14.582
-0.0862428
-5.2571
-10.0466
4.14871
0.765457
-3.23731
-6.0749
-0.0852825
-2.36911
-4.56516
-0.258563
-1.96375
-3.585
-0.697772
-1.91867
-3.34819
-4.39676
-0.764399
-1.74611
-2.75313
-0.704055
-1.48737
-2.23534
-0.820614
-1.39968
-1.92705
-0.636099
-0.984657
-1.37096
-1.64142
-1.25125
-1.43881
-1.61157
-1.40293
-1.51676
-1.61952
-1.53323
-1.59638
-1.65778
-1.70144
-1.63866
-1.66632
-1.69269
-1.70503
-1.71984
-1.7308
-1.72493
-1.73065
-1.73497
-1.73704
-29.6257
-29.994
-30.7948
-32.1833
-34.4961
-38.4783
-45.7779
-56.6039
-0.396362
-14.3486
-27.5874
3.32116
-7.83772
-18.1143
3.77381
-5.05573
-13.2621
7.85921
1.72132
-3.36506
-7.63313
1.5525
-2.209
-5.64448
0.966653
-1.82116
-4.30978
0.168203
-1.73327
-3.52542
-5.29222
0.119922
-1.64294
-3.25535
-0.127953
-1.42465
-2.59111
-0.416929
-1.36694
-2.22433
-0.280572
-0.888264
-1.36978
-1.74806
-1.12818
-1.41912
-1.66711
-1.33047
-1.50281
-1.64406
-1.49688
-1.58627
-1.65875
-1.71845
-1.61807
-1.66027
-1.69176
-1.70259
-1.71942
-1.73285
-1.72163
-1.72945
-1.73432
-1.73651
-29.67
-30.0463
-30.8673
-32.3014
-34.7287
-39.0771
-48.068
-69.3435
11.8243
-13.5516
-34.9009
11.0109
-7.41579
-23.4638
9.3477
-4.90131
-18.1348
13.0783
2.57352
-3.53869
-9.94812
3.91216
-2.07559
-7.29244
2.71435
-1.70291
-5.4299
1.38736
-1.56207
-3.69714
-6.58859
1.4054
-1.55322
-4.02608
0.694159
-1.37249
-3.13603
0.160648
-1.3412
-2.68024
0.215888
-0.803471
-1.37496
-1.91114
-0.954549
-1.40276
-1.75593
-1.22987
-1.49122
-1.68509
-1.44749
-1.57748
-1.66034
-1.74441
-1.5895
-1.655
-1.692
-1.69976
-1.7191
-1.73621
-1.7172
-1.72836
-1.73373
-1.73602
-29.6911
-30.0712
-30.9019
-32.3582
-34.8426
-39.3886
-49.5771
-87.2698
29.4852
-13.0118
-45.6663
21.9718
-7.1445
-31.3193
17.3164
-4.8105
-25.287
20.4081
3.14542
-3.68994
-13.2987
7.28147
-1.9909
-9.72208
5.19431
-1.62824
-7.09237
3.1008
-1.44322
-3.81986
-8.43866
3.24881
-1.49435
-5.16648
1.86086
-1.33947
-3.94088
0.982035
-1.32565
-3.35369
0.9102
-0.747166
-1.38201
-2.15077
-0.709712
-1.39238
-1.89014
-1.08948
-1.48385
-1.74847
-1.3796
-1.57164
-1.66177
-1.78259
-1.54978
-1.6515
-1.69384
-1.69637
-1.71887
-1.74142
-1.71123
-1.72759
-1.73331
-1.73568
)
;

boundaryField
{
    left
    {
        type            calculated;
        value           nonuniform List<scalar> 
32
(
-20.1677
-20.2459
-20.3944
-20.6051
-20.8705
-21.1841
-21.5398
-21.932
-22.3549
-22.8031
-23.2711
-23.7532
-24.2439
-24.7375
-25.2283
-25.7109
-26.1799
-26.6305
-27.0581
-27.4588
-27.8293
-28.167
-28.4701
-28.7377
-28.9694
-29.1657
-29.3277
-29.457
-29.5555
-29.6257
-29.67
-29.6911
)
;
    }
    right
    {
        type            calculated;
        value           nonuniform List<scalar> 
32
(
-1.8114
-1.81047
-1.80872
-1.8063
-1.80334
-1.79995
-1.79626
-1.79236
-1.78833
-1.78426
-1.7802
-1.77621
-1.77233
-1.7686
-1.76503
-1.76165
-1.75847
-1.7555
-1.75274
-1.7502
-1.74788
-1.74577
-1.74388
-1.74221
-1.74076
-1.73953
-1.73851
-1.73769
-1.73704
-1.73651
-1.73602
-1.73568
)
;
    }
    interface
    {
        type            calculated;
        value           nonuniform List<scalar> 
64
(
-29.6961
-30.0771
-30.9102
-32.3719
-34.8704
-39.4679
-50.067
-97.7402
39.889
-12.8333
-52.0469
28.4019
-7.05799
-35.9709
21.9962
-4.7835
-29.521
24.6868
3.33399
-3.7486
-15.2726
9.25938
-1.96412
-11.1624
6.64722
-1.60474
-8.07994
4.10125
-1.40296
-3.86215
-9.52396
4.33226
-1.47529
-5.84336
2.54438
-1.32905
-4.41829
1.46361
-1.32094
-3.75315
1.31495
-0.728757
-1.38525
-2.29261
-0.566576
-1.3891
-1.97032
-1.0077
-1.48153
-1.78661
-1.34029
-1.56974
-1.66234
-1.80523
-1.5267
-1.65036
-1.69523
-1.69453
-1.71881
-1.74458
-1.70783
-1.72735
-1.73316
-1.73558
)
;
    }
    bottom
    {
        type            calculated;
        value           nonuniform List<scalar> 
64
(
-20.1473
-20.0508
-19.859
-19.5741
-19.1997
-18.7409
-18.2044
-17.5986
-16.9335
-16.2202
-15.4706
-14.6967
-13.9106
-13.1232
-12.3445
-11.5834
-10.847
-10.1409
-9.46932
-8.83507
-8.23967
-7.6836
-7.16648
-6.68726
-6.24439
-5.83597
-5.45991
-5.11404
-4.79615
-4.50414
-4.23601
-3.98992
-3.76419
-3.55733
-3.36799
-3.195
-3.03727
-2.89381
-2.76372
-2.64612
-2.54019
-2.44514
-2.36016
-2.28449
-2.21738
-2.15809
-2.10592
-2.06019
-2.02025
-1.98551
-1.95541
-1.92944
-1.90714
-1.88807
-1.87185
-1.85817
-1.8467
-1.83721
-1.82946
-1.82328
-1.81851
-1.81503
-1.81276
-1.81164
)
;
    }
    defaultFaces
    {
        type            empty;
    }
}


// ************************************************************************* //
