/*--------------------------------*- C++ -*----------------------------------*\
| =========                 |                                                 |
| \\      /  F ield         | OpenFOAM: The Open Source CFD Toolbox           |
|  \\    /   O peration     | Version:  5.x                                   |
|   \\  /    A nd           | Web:      www.OpenFOAM.org                      |
|    \\/     M anipulation  |                                                 |
\*---------------------------------------------------------------------------*/
FoamFile
{
    version     2.0;
    format      ascii;
    class       volScalarField;
    location    "8";
    object      gradTx;
}
// * * * * * * * * * * * * * * * * * * * * * * * * * * * * * * * * * * * * * //

dimensions      [0 -1 0 1 0 0 0];

internalField   nonuniform List<scalar> 
2048
(
0.0221695
0.0662618
0.109591
0.151578
0.191568
0.22883
0.262606
0.292166
0.316887
0.336321
0.350237
0.35864
0.361762
0.360022
0.35398
0.344286
0.331634
0.316719
0.300204
0.282694
0.264719
0.246721
0.229054
0.211987
0.19571
0.180348
0.16597
0.152596
0.140212
0.128774
0.118219
0.108471
0.0994517
0.0910836
0.0832972
0.076033
0.0692427
0.0628887
0.0569433
0.0513867
0.0462053
0.0413893
0.0369314
0.032824
0.0290587
0.0256247
0.0225089
0.0196958
0.0171677
0.0149056
0.0128894
0.0110986
0.00951256
0.008111
0.00687407
0.00578262
0.00481833
0.00396372
0.00320215
0.00251776
0.00189541
0.00132053
0.000779096
0.000257506
0.0657433
0.196519
0.325088
0.449759
0.568581
0.679367
0.779819
0.867722
0.941178
0.998819
1.03995
1.0646
1.07349
1.06788
1.04948
1.02025
0.98227
0.937629
0.888305
0.836104
0.782598
0.729099
0.676649
0.626035
0.577814
0.532345
0.48982
0.450296
0.413722
0.379961
0.348819
0.320068
0.293467
0.268787
0.245817
0.224382
0.204339
0.185578
0.168018
0.151603
0.136293
0.122062
0.108889
0.0967539
0.0856314
0.0754905
0.0662923
0.0579904
0.0505324
0.0438615
0.0379181
0.032641
0.0279691
0.0238421
0.0202013
0.0169898
0.0141535
0.0116408
0.0094025
0.0073918
0.00556394
0.00387601
0.00228666
0.000755778
0.107949
0.322748
0.53411
0.739324
0.935184
1.11802
1.2839
1.42903
1.55013
1.64483
1.71197
1.75162
1.76505
1.75446
1.72275
1.67326
1.60949
1.53493
1.45286
1.3663
1.27782
1.18959
1.10328
1.02017
0.941127
0.866722
0.797238
0.732747
0.673143
0.618182
0.567527
0.520785
0.477547
0.437425
0.40007
0.365192
0.33256
0.301995
0.273372
0.246601
0.221626
0.198408
0.176916
0.157123
0.138988
0.122463
0.107483
0.0939724
0.0818431
0.0710013
0.0613484
0.0527837
0.0452065
0.0385177
0.0326208
0.027423
0.0228356
0.0187745
0.0151594
0.0119142
0.00896585
0.00624464
0.00368374
0.00121761
0.14907
0.445834
0.738242
1.0227
1.29476
1.54921
1.7803
1.98242
2.1507
2.28166
2.3736
2.42674
2.44298
2.42561
2.37889
2.3076
2.21675
2.11129
1.99585
1.87463
1.75123
1.6286
1.50905
1.39424
1.28535
1.18307
1.08776
0.999468
0.918008
0.843008
0.773965
0.710302
0.651424
0.596775
0.545866
0.498294
0.453743
0.41198
0.372837
0.336205
0.302014
0.270221
0.240796
0.213705
0.1889
0.166314
0.145858
0.127426
0.110895
0.0961324
0.0830018
0.0713627
0.0610758
0.0520037
0.0440136
0.0369776
0.030774
0.0252874
0.0204085
0.0160329
0.0120613
0.00839813
0.00495348
0.00163746
0.189264
0.566293
0.938477
1.30151
1.64977
1.9763
2.27332
2.53301
2.74861
2.91531
3.03085
3.09566
3.11251
3.08598
3.02186
2.92656
2.8067
2.66875
2.51874
2.3621
2.20344
2.04648
1.89406
1.74822
1.61033
1.48118
1.36114
1.2502
1.14808
1.05424
0.967976
0.888505
0.815024
0.746793
0.683177
0.623665
0.567867
0.515499
0.466367
0.420348
0.377371
0.337399
0.300408
0.266368
0.235227
0.206901
0.181277
0.158215
0.137557
0.119133
0.102765
0.0882744
0.0754828
0.0642158
0.0543047
0.0455877
0.0379115
0.031131
0.0251091
0.0197155
0.0148252
0.0103189
0.00608541
0.0020118
0.228567
0.684286
1.13525
1.57668
2.00181
2.40179
2.76636
3.08503
3.34866
3.55083
3.6887
3.76308
3.77786
3.73922
3.65475
3.53266
3.38132
3.2088
3.02261
2.82943
2.63489
2.44345
2.25843
2.08213
1.91604
1.76099
1.6173
1.48488
1.3633
1.25184
1.14958
1.05545
0.968436
0.887584
0.812112
0.741408
0.675018
0.612622
0.55401
0.499055
0.447697
0.399916
0.355708
0.315054
0.277901
0.244151
0.213665
0.186269
0.161764
0.13994
0.120579
0.103464
0.0883781
0.0751097
0.0634549
0.0532191
0.0442185
0.03628
0.0292404
0.0229447
0.0172446
0.011998
0.00707415
0.00233883
0.2669
0.799636
1.32845
1.84844
2.35175
2.8274
3.26212
3.64203
3.95496
4.19256
4.35137
4.43282
4.44235
4.38814
4.27985
4.12774
3.94201
3.73246
3.50814
3.27704
3.04584
2.81967
2.60225
2.39605
2.20255
2.02255
1.85629
1.70356
1.56376
1.43595
1.31893
1.21134
1.11188
1.01937
0.932891
0.851724
0.775374
0.7035
0.635888
0.57242
0.513058
0.457813
0.406712
0.359761
0.316911
0.278049
0.243005
0.211567
0.183494
0.158534
0.136427
0.116917
0.0997484
0.0846739
0.0714544
0.0598634
0.0496877
0.040728
0.0327969
0.0257165
0.0193163
0.013433
0.00791843
0.0026181
0.304071
0.911839
1.51748
2.11638
2.69975
3.25421
3.76271
4.20705
4.57119
4.84434
5.02247
5.10806
5.10862
5.03483
4.89881
4.71304
4.4897
4.24037
3.97571
3.70514
3.43638
3.17521
2.92562
2.69008
2.47
2.26604
2.07829
1.90642
1.74966
1.6068
1.47631
1.35649
1.24569
1.14249
1.04582
0.954889
0.869179
0.788347
0.712184
0.640595
0.573573
0.511176
0.453482
0.400533
0.352288
0.308619
0.26932
0.234133
0.202771
0.174935
0.150327
0.128649
0.109609
0.0929225
0.0783164
0.0655323
0.0543293
0.0444837
0.0357857
0.0280364
0.0210447
0.0146273
0.00862024
0.0028503
0.339783
1.02008
1.70121
2.37947
3.04533
3.68266
4.26978
4.78283
5.20072
5.50963
5.70514
5.79137
5.77864
5.68075
5.5127
5.28936
5.02495
4.73284
4.42544
4.11371
3.80648
3.51009
3.22863
2.96442
2.71863
2.4917
2.28356
2.09374
1.92127
1.7647
1.6221
1.49131
1.37029
1.25735
1.15127
1.05124
0.956729
0.86742
0.783125
0.703772
0.629398
0.560128
0.496111
0.437443
0.384097
0.335922
0.292667
0.254021
0.219645
0.189194
0.162324
0.138702
0.117997
0.0998904
0.0840723
0.0702536
0.0581673
0.0475672
0.0382235
0.029918
0.0224403
0.0155884
0.00918411
0.00303692
0.37364
1.12324
1.87807
2.63607
3.38734
4.11269
4.78463
5.37192
5.84678
6.1917
6.40216
6.48481
6.4538
6.32681
6.12211
5.85709
5.54798
5.20996
4.85727
4.5026
4.156
3.82429
3.51141
3.21931
2.94877
2.69989
2.47246
2.26585
2.07896
1.91006
1.75674
1.61629
1.48616
1.36441
1.24967
1.14114
1.03835
0.941012
0.848967
0.762176
0.680723
0.604817
0.534716
0.470588
0.412426
0.360043
0.313131
0.271315
0.234196
0.20138
0.172484
0.147135
0.124969
0.105628
0.0887676
0.0740676
0.061236
0.0500073
0.0401342
0.0313807
0.0235182
0.0163271
0.00961651
0.00318012
0.405161
1.21996
2.04603
2.88394
3.72398
4.54366
5.30828
5.97683
6.51265
6.89367
7.11595
7.18997
7.13494
6.97336
6.72717
6.41629
6.05884
5.67165
5.27093
4.87149
4.48474
4.11779
3.77413
3.4551
3.16083
2.89106
2.64539
2.42314
2.2231
2.04329
1.88074
1.73198
1.59389
1.46419
1.34148
1.225
1.11439
1.00943
0.909992
0.816055
0.727754
0.645409
0.569427
0.500081
0.43738
0.381088
0.330818
0.286116
0.24652
0.211585
0.180889
0.154023
0.130591
0.110197
0.0924585
0.0770232
0.0635772
0.051839
0.0415466
0.0324478
0.0242966
0.0168565
0.0099253
0.00328251
0.433794
1.30863
2.20265
3.12024
4.05279
4.9744
5.8415
6.60018
7.20174
7.61863
7.84867
7.90794
7.82231
7.62025
7.32764
6.9668
6.55741
6.11772
5.66608
5.21995
4.79242
4.39057
4.01704
3.67219
3.35533
3.06572
2.80284
2.56603
2.35411
2.16486
1.99465
1.83901
1.69406
1.55725
1.42716
1.30321
1.1852
1.073
0.966491
0.865675
0.770718
0.682078
0.600378
0.52604
0.459079
0.399178
0.345849
0.298545
0.25673
0.219912
0.187631
0.159449
0.134939
0.113667
0.0952087
0.0791763
0.0652379
0.0531012
0.0424928
0.0331456
0.0247961
0.0171913
0.0101193
0.00334702
0.458939
1.38748
2.34513
3.34157
4.3706
5.40317
6.38495
7.24485
7.9178
8.36967
8.60216
8.63931
8.51563
8.26685
7.92295
7.50824
7.04355
6.54798
6.04225
5.54743
5.07869
4.64266
4.24047
3.87114
3.5329
3.22447
2.94535
2.69499
2.47238
2.27524
2.09907
1.93806
1.78735
1.64416
1.50721
1.37616
1.25112
1.13202
1.01876
0.911317
0.809853
0.715001
0.627701
0.548585
0.477649
0.414446
0.358362
0.308735
0.26495
0.226472
0.192811
0.163503
0.138096
0.116116
0.0970879
0.0805872
0.0662682
0.0538351
0.0430069
0.0335022
0.0250388
0.0173474
0.0102081
0.00337678
0.479976
1.45466
2.47041
3.54402
4.6735
5.82754
6.93909
7.9142
8.66506
9.14991
9.37794
9.38418
9.21401
8.91208
8.51225
8.04014
7.51717
6.9623
6.39888
5.85321
5.3432
4.87415
4.44484
4.05259
3.69427
3.36799
3.07349
2.81046
2.57827
2.37485
2.19465
2.02986
1.87443
1.72551
1.58209
1.44424
1.31247
1.18682
1.06711
0.953274
0.84541
0.744351
0.651519
0.567834
0.493221
0.427036
0.368504
0.316829
0.27131
0.231383
0.196533
0.166277
0.140146
0.117623
0.0981696
0.0813186
0.0667195
0.0540825
0.0431237
0.0335465
0.0250479
0.0173415
0.0102013
0.00337497
0.496298
1.50826
2.57525
3.72316
4.95681
6.24436
7.50427
8.61228
9.44844
9.96243
10.1771
10.1421
9.91591
9.55441
9.09447
8.56194
7.97832
7.36071
6.73532
6.13641
5.58556
5.08525
4.63068
4.21735
3.8403
3.49702
3.1879
2.91291
2.6721
2.46411
2.28206
2.11524
1.95602
1.80189
1.65226
1.50776
1.36956
1.23769
1.11183
0.991856
0.877656
0.770294
0.671932
0.583898
0.505936
0.437098
0.376431
0.322978
0.275947
0.234768
0.198906
0.167864
0.141172
0.118271
0.0985304
0.0814351
0.0666429
0.0538844
0.0428774
0.0333077
0.0248468
0.0171901
0.0101087
0.00334479
0.507341
1.54651
2.65637
3.8742
5.21497
6.64948
8.08065
9.34412
10.2737
10.8102
11.0005
10.9121
10.6191
10.1919
9.66839
9.073
8.42734
7.74354
7.05079
6.39585
5.80536
5.2763
4.79864
4.36631
3.97196
3.61234
3.28923
3.00279
2.75406
2.54334
2.36206
2.19509
2.03285
1.87386
1.71814
1.56703
1.42267
1.28493
1.15321
1.02739
0.906879
0.792977
0.689014
0.59688
0.515939
0.44479
0.382307
0.327341
0.278999
0.236749
0.200035
0.168352
0.141258
0.118142
0.0982494
0.081001
0.0660879
0.0532803
0.0423013
0.0328148
0.0244593
0.0169101
0.00993987
0.00328925
0.512631
1.56778
2.71059
3.99206
5.44158
7.03761
8.66809
10.1161
11.148
11.6958
11.848
11.6926
11.3206
10.8224
10.2328
9.57258
8.86498
8.11155
7.3443
6.63
6.00226
5.44788
4.94946
4.50056
4.09035
3.71473
3.3782
3.0806
2.82423
2.61273
2.43546
2.27043
2.10561
1.94199
1.78015
1.62225
1.47202
1.32879
1.1915
1.06022
0.933398
0.812522
0.702794
0.606877
0.52339
0.450274
0.386303
0.330082
0.280602
0.237446
0.200028
0.167826
0.14048
0.117321
0.0974083
0.0800801
0.065101
0.0523064
0.041427
0.0320967
0.0239093
0.016518
0.00970385
0.00321118
0.51181
1.57078
2.73501
4.07154
5.62929
7.40195
9.26591
10.9367
12.0797
12.6208
12.7193
12.4819
12.0163
11.4434
10.7864
10.0597
9.29254
8.46621
7.61449
6.83681
6.17605
5.6009
5.0839
4.62128
4.19672
3.8049
3.45558
3.14685
2.88246
2.67233
2.50324
2.34243
2.17496
2.00679
1.83868
1.67353
1.51784
1.36957
1.22693
1.09075
0.957585
0.829012
0.713242
0.613981
0.528467
0.453711
0.388593
0.331371
0.280885
0.236978
0.198991
0.166364
0.138908
0.115894
0.0960923
0.0787341
0.0637243
0.0509955
0.0402841
0.0311816
0.0232209
0.0160295
0.00940885
0.00311301
0.504671
1.55459
2.72722
4.10754
5.76993
7.73386
9.87251
11.8169
13.0794
13.5854
13.6133
13.2779
12.701
12.0525
11.3284
10.5328
9.71211
8.80995
7.85948
7.01343
6.32676
5.73671
5.20262
4.72985
4.29252
3.88346
3.52224
3.20218
2.92833
2.7219
2.56655
2.41249
2.24141
2.06875
1.89412
1.72087
1.56032
1.40755
1.25965
1.11939
0.979888
0.842469
0.720252
0.618291
0.53138
0.455257
0.389357
0.331388
0.279967
0.235461
0.19703
0.16403
0.136601
0.113948
0.0943914
0.0770214
0.0619942
0.0493765
0.0388995
0.0300977
0.0224183
0.0154598
0.00906203
0.00299676
0.491181
1.51881
2.68542
4.09533
5.85454
8.02238
10.4847
12.7713
14.1605
14.587
14.5282
14.0791
13.3677
12.6474
11.8585
10.9894
10.1268
9.14665
8.0765
7.15597
6.45491
5.85734
5.306
4.8278
4.37947
3.95067
3.57917
3.24746
2.96106
2.76085
2.62689
2.48231
2.30522
2.12832
1.94691
1.76404
1.59966
1.44308
1.28967
1.14667
1.00087
0.852827
0.723609
0.619926
0.532383
0.455046
0.388778
0.330322
0.277946
0.233007
0.194257
0.160877
0.133605
0.111575
0.0924025
0.0749953
0.0599403
0.0474733
0.0372979
0.0288735
0.0215264
0.0148229
0.0086692
0.00286389
0.471491
1.46355
2.60865
4.03086
5.87367
8.25375
11.0967
13.8196
15.34
15.6181
15.4621
14.8849
14.0065
13.2266
12.3776
11.425
10.5411
9.48223
8.26139
7.25909
6.5618
5.96569
5.39381
4.91696
4.45965
4.00627
3.62761
3.28391
2.97932
2.78809
2.6862
2.55399
2.36621
2.18598
1.99762
1.80253
1.6361
1.47657
1.31681
1.17317
1.02128
0.859888
0.72296
0.619052
0.531802
0.453173
0.387044
0.328385
0.274891
0.229725
0.190793
0.156939
0.129948
0.108874
0.090233
0.0727012
0.0575838
0.045306
0.035501
0.0275376
0.0205711
0.014131
0.0082345
0.00271528
0.445934
1.38953
2.49692
3.91105
5.81765
8.41103
11.6985
14.9884
16.6396
16.6641
16.4135
15.697
14.6037
13.7901
12.8884
11.832
10.9616
9.82553
8.40799
7.31553
6.65003
6.06596
5.46464
4.99952
4.53579
4.04912
3.66909
3.31336
2.9811
2.80179
2.74711
2.63022
2.42349
2.24224
2.04704
1.83538
1.67
1.50863
1.34055
1.19966
1.04212
0.86326
0.717776
0.615915
0.530056
0.449655
0.384354
0.325819
0.270818
0.225725
0.18678
0.152224
0.125632
0.105953
0.0880044
0.0701726
0.0549367
0.0428907
0.0335274
0.0261203
0.0195796
0.0133942
0.00776023
0.00255122
0.415018
1.29803
2.35128
3.73423
5.67724
8.47367
12.2736
16.3134
18.088
17.6991
17.3821
16.5213
15.1395
14.34
13.3964
12.1978
11.3972
10.1894
8.50707
7.31552
6.7241
6.16403
5.51516
5.0783
4.6115
4.0766
3.70569
3.33855
2.96347
2.79914
2.81323
2.71448
2.47505
2.29781
2.09639
1.86094
1.70191
1.54014
1.3598
1.22711
1.06475
0.862267
0.707306
0.610894
0.527699
0.444382
0.380927
0.32292
0.265672
0.221123
0.182386
0.146709
0.120631
0.102942
0.0858579
0.0674255
0.0520009
0.0402408
0.0313923
0.0246534
0.0185815
0.0126199
0.00724673
0.00237152
0.379394
1.19082
2.17388
3.5004
5.44428
8.41756
12.7959
17.8422
19.7233
18.6806
18.3713
17.3699
15.5844
14.8826
13.9116
12.5015
11.8608
10.5922
8.54508
7.24612
6.79131
6.26807
5.53895
5.15709
4.69178
4.08393
3.74026
3.36356
2.92225
2.77597
2.8895
2.81133
2.51717
2.35374
2.14752
1.87655
1.73274
1.57243
1.37272
1.25678
1.09102
0.855826
0.690525
0.604567
0.52546
0.437046
0.377022
0.320061
0.259284
0.216051
0.177832
0.140325
0.114878
0.0999915
0.0839605
0.0644498
0.0487689
0.0373693
0.0291064
0.0231718
0.0176091
0.0118112
0.00669243
0.00217572
0.339828
1.07014
1.9679
3.21154
5.11265
8.21535
13.2246
19.6389
21.5962
19.5416
19.3904
18.2642
15.8954
15.4299
14.4507
12.7107
12.3706
11.0598
8.50231
7.0905
6.86282
6.38934
5.52498
5.24126
4.78361
4.063
3.77681
3.39431
2.85164
2.72635
2.9827
2.92678
2.54362
2.41176
2.20326
1.87804
1.76398
1.60747
1.37621
1.29043
1.1235
0.842278
0.66609
0.597794
0.524306
0.427029
0.372964
0.317731
0.25132
0.21067
0.173402
0.132946
0.10826
0.097291
0.0825135
0.0611984
0.0452249
0.0342911
0.0266742
0.0217142
0.0166989
0.0109657
0.00609415
0.00196341
0.297157
0.938542
1.73748
2.87176
4.67935
7.83766
13.4988
21.7879
23.775
20.1809
20.4591
19.2395
16.0087
16.003
15.0398
12.7753
12.9519
11.6274
8.35065
6.8272
6.95496
6.5431
5.45549
5.33857
4.89686
4.00099
3.82107
3.43921
2.74376
2.642
3.10202
3.06882
2.54462
2.47464
2.26784
1.85905
1.79795
1.64821
1.36548
1.33045
1.1656
0.819169
0.632294
0.591821
0.525503
0.413273
0.369196
0.316585
0.241215
0.205198
0.169474
0.124364
0.100605
0.0950765
0.0817615
0.0575721
0.041348
0.0310262
0.0240915
0.0203248
0.0158928
0.0100738
0.00544766
0.00173459
0.252248
0.798755
1.48748
2.48732
4.14556
7.2552
13.5287
24.4002
26.352
20.4499
21.6136
20.35
15.8319
16.6356
15.7182
12.6212
13.6405
12.3428
8.05061
6.42943
7.09078
6.74987
5.30321
5.46034
5.0453
3.87839
3.88125
3.50986
2.58812
2.51167
3.25974
3.24807
2.50542
2.54688
2.34747
1.81014
1.83827
1.69893
1.33332
1.3802
1.22192
0.782965
0.587031
0.588395
0.530709
0.394094
0.366348
0.317502
0.228072
0.19994
0.166547
0.114271
0.0916733
0.0936471
0.0820036
0.0533995
0.0371185
0.0276042
0.021342
0.0190544
0.0152394
0.00911553
0.00474853
0.00149012
0.205957
0.653576
1.22324
2.06647
3.51776
6.44244
13.1854
27.6193
29.4513
20.1359
22.9138
21.6751
15.2326
17.3797
16.5431
12.1412
14.4863
13.2691
7.54773
5.86452
7.3017
7.03701
5.02793
5.62305
5.24804
3.66658
3.96906
3.62192
2.37094
2.32038
3.47198
3.47857
2.40455
2.63543
2.45094
1.71767
1.89037
1.76573
1.26923
1.44435
1.29847
0.728698
0.527796
0.589894
0.54207
0.366952
0.36533
0.32166
0.210549
0.195337
0.165276
0.102219
0.0811452
0.0933811
0.0836061
0.0484125
0.0325269
0.0240687
0.0183918
0.017963
0.0147963
0.00805807
0.00399336
0.00123199
0.159092
0.505718
0.950325
1.61909
2.80849
5.38292
12.2886
31.6294
33.2392
18.9416
24.454
23.3269
14.0245
18.3119
17.5956
11.1833
15.5584
14.4878
6.7683
5.09361
7.62921
7.44055
4.57216
5.85036
5.53112
3.32475
4.10105
3.79591
2.0745
2.04859
3.75959
3.77888
2.21161
2.75081
2.59045
1.56226
1.96217
1.8571
1.15828
1.52943
1.40302
0.649532
0.451706
0.599454
0.562345
0.328171
0.367464
0.330623
0.186703
0.192032
0.166499
0.0875901
0.0686148
0.0947539
0.0870179
0.0422155
0.0275872
0.0204821
0.0151829
0.0171221
0.0146314
0.00685102
0.00318125
0.000963476
0.112388
0.357701
0.674183
1.15607
2.03659
4.07693
10.5903
36.6628
37.9368
16.4602
26.3758
25.4592
11.9504
19.5415
18.9871
9.53792
16.9519
16.1027
5.61429
4.07177
8.12658
8.00762
3.85598
6.17573
5.92939
2.79622
4.30038
4.05804
1.6764
1.67125
4.14899
4.17333
1.8847
2.90844
2.78254
1.31709
2.06497
1.98462
0.979849
1.64443
1.54539
0.536263
0.355579
0.621094
0.595058
0.272598
0.37465
0.346434
0.15381
0.190958
0.171278
0.0695494
0.0535823
0.0983569
0.0927865
0.0342489
0.0223551
0.01693
0.011625
0.0166179
0.0148263
0.00542164
0.00231567
0.000688894
0.0664795
0.211758
0.399885
0.688664
1.22674
2.55151
7.7571
43.0092
43.8355
12.1466
28.8832
28.2768
8.66262
21.221
20.8676
6.92203
18.7953
18.243
3.95769
2.74858
8.86023
8.79919
2.77104
6.64551
6.48872
2.00412
4.59897
4.44096
1.1488
1.15691
4.67304
4.69352
1.3673
3.13025
3.04904
0.945825
2.21447
2.16371
0.706021
1.80161
1.7378
0.376734
0.23607
0.659812
0.644667
0.193213
0.389576
0.371718
0.108151
0.193443
0.18092
0.0469958
0.0354518
0.104915
0.101578
0.0237463
0.0169518
0.0135252
0.00758501
0.0165552
0.0154781
0.00366881
0.00140666
0.000412858
0.0218973
0.0697781
0.13189
0.227608
0.407839
0.873412
3.34915
51.0243
51.3145
5.28394
32.2614
32.0457
3.69978
23.557
23.4344
2.96091
21.2605
21.066
1.6343
1.0694
9.91076
9.89349
1.17373
7.32264
7.26825
0.846431
5.04013
4.98432
0.45769
0.466748
5.37179
5.38017
0.584835
3.44662
3.41819
0.400174
2.43203
2.41452
0.299828
2.01746
1.99513
0.155192
0.0898811
0.721649
0.716774
0.0806787
0.41596
0.409788
0.0447672
0.20135
0.197004
0.0185099
0.0135345
0.115301
0.114196
0.00968593
0.0115935
0.0104098
0.00287617
0.017062
0.0167025
0.00145604
0.000473394
0.000138972
)
;

boundaryField
{
    left
    {
        type            calculated;
        value           uniform 0;
    }
    right
    {
        type            calculated;
        value           uniform 0;
    }
    interface
    {
        type            calculated;
        value           nonuniform List<scalar> 
64
(
0.0218973
0.0697781
0.13189
0.227608
0.407839
0.873412
3.34915
51.0243
51.3145
5.28394
32.2614
32.0457
3.69978
23.557
23.4344
2.96091
21.2605
21.066
1.6343
1.0694
9.91076
9.89349
1.17373
7.32264
7.26825
0.846431
5.04013
4.98432
0.45769
0.466748
5.37179
5.38017
0.584835
3.44662
3.41819
0.400174
2.43203
2.41452
0.299828
2.01746
1.99513
0.155192
0.0898811
0.721649
0.716774
0.0806787
0.41596
0.409788
0.0447672
0.20135
0.197004
0.0185099
0.0135345
0.115301
0.114196
0.00968593
0.0115935
0.0104098
0.00287617
0.017062
0.0167025
0.00145604
0.000473394
0.000138972
)
;
    }
    bottom
    {
        type            calculated;
        value           nonuniform List<scalar> 
64
(
0.0221695
0.0662618
0.109591
0.151578
0.191568
0.22883
0.262606
0.292166
0.316887
0.336321
0.350237
0.35864
0.361762
0.360022
0.35398
0.344286
0.331634
0.316719
0.300204
0.282694
0.264719
0.246721
0.229054
0.211987
0.19571
0.180348
0.16597
0.152596
0.140212
0.128774
0.118219
0.108471
0.0994517
0.0910836
0.0832972
0.076033
0.0692427
0.0628887
0.0569433
0.0513867
0.0462053
0.0413893
0.0369314
0.032824
0.0290587
0.0256247
0.0225089
0.0196958
0.0171677
0.0149056
0.0128894
0.0110986
0.00951256
0.008111
0.00687407
0.00578262
0.00481833
0.00396372
0.00320215
0.00251776
0.00189541
0.00132053
0.000779096
0.000257506
)
;
    }
    defaultFaces
    {
        type            empty;
    }
}


// ************************************************************************* //
