/*--------------------------------*- C++ -*----------------------------------*\
| =========                 |                                                 |
| \\      /  F ield         | OpenFOAM: The Open Source CFD Toolbox           |
|  \\    /   O peration     | Version:  5.x                                   |
|   \\  /    A nd           | Web:      www.OpenFOAM.org                      |
|    \\/     M anipulation  |                                                 |
\*---------------------------------------------------------------------------*/
FoamFile
{
    version     2.0;
    format      ascii;
    class       volScalarField;
    location    "8";
    object      T;
}
// * * * * * * * * * * * * * * * * * * * * * * * * * * * * * * * * * * * * * //

dimensions      [0 0 0 1 0 0 0];

internalField   nonuniform List<scalar> 
2048
(
9.85526
9.85595
9.85733
9.85937
9.86206
9.86536
9.86922
9.87357
9.87835
9.88347
9.88886
9.89441
9.90006
9.90572
9.91131
9.91678
9.92207
9.92715
9.93197
9.93653
9.9408
9.9448
9.94851
9.95196
9.95514
9.95807
9.96077
9.96326
9.96554
9.96764
9.96957
9.97134
9.97296
9.97444
9.9758
9.97705
9.97818
9.97921
9.98014
9.98099
9.98175
9.98243
9.98304
9.98359
9.98407
9.9845
9.98487
9.9852
9.98549
9.98574
9.98595
9.98614
9.9863
9.98644
9.98655
9.98665
9.98673
9.9868
9.98686
9.9869
9.98694
9.98696
9.98698
9.98698
9.57153
9.57358
9.57767
9.58374
9.59172
9.60151
9.61295
9.62588
9.64007
9.65529
9.67128
9.68779
9.70455
9.72133
9.73792
9.75413
9.76981
9.78483
9.79911
9.81259
9.82523
9.83704
9.84802
9.85819
9.86758
9.87624
9.88422
9.89155
9.89829
9.90448
9.91016
9.91538
9.92017
9.92455
9.92857
9.93223
9.93558
9.93862
9.94138
9.94387
9.94611
9.94813
9.94993
9.95153
9.95295
9.95421
9.95531
9.95628
9.95712
9.95786
9.95849
9.95904
9.95951
9.95992
9.96026
9.96055
9.96079
9.96099
9.96115
9.96128
9.96139
9.96146
9.96151
9.96153
9.29865
9.30203
9.30874
9.31872
9.33184
9.34794
9.36678
9.38806
9.41144
9.4365
9.46284
9.49
9.51758
9.54516
9.5724
9.599
9.62469
9.64929
9.67266
9.6947
9.71536
9.73463
9.75253
9.76911
9.78441
9.79852
9.8115
9.82343
9.83439
9.84446
9.85371
9.8622
9.86999
9.87712
9.88366
9.88963
9.89507
9.90002
9.90451
9.90856
9.91221
9.91549
9.91841
9.92102
9.92332
9.92536
9.92715
9.92872
9.93009
9.93128
9.9323
9.93319
9.93395
9.93461
9.93516
9.93562
9.93601
9.93634
9.9366
9.93681
9.93697
9.93709
9.93717
9.93721
9.03538
9.04004
9.04931
9.06311
9.08127
9.10357
9.12968
9.1592
9.19163
9.22641
9.26293
9.30059
9.33877
9.37693
9.41457
9.45127
9.48668
9.52054
9.55266
9.58291
9.61124
9.63764
9.66214
9.6848
9.70571
9.72496
9.74268
9.75896
9.77391
9.78764
9.80025
9.81183
9.82245
9.83219
9.8411
9.84925
9.85667
9.86343
9.86955
9.87508
9.88005
9.88451
9.8885
9.89204
9.89518
9.89794
9.90037
9.9025
9.90436
9.90597
9.90736
9.90856
9.90959
9.91047
9.91121
9.91184
9.91237
9.91281
9.91316
9.91344
9.91366
9.91382
9.91392
9.91398
8.78067
8.78659
8.79837
8.81591
8.83904
8.86747
8.9008
8.93851
8.97996
9.0244
9.07106
9.11912
9.1678
9.21638
9.26424
9.31082
9.35569
9.39853
9.43909
9.47724
9.51291
9.54609
9.57686
9.60528
9.63149
9.65561
9.67778
9.69814
9.71685
9.73402
9.74979
9.76427
9.77756
9.78974
9.80089
9.81109
9.82038
9.82883
9.83649
9.84341
9.84963
9.8552
9.86017
9.86459
9.8685
9.87194
9.87496
9.8776
9.87991
9.8819
9.88363
9.88511
9.88639
9.88747
9.88839
9.88917
9.88982
9.89035
9.89079
9.89114
9.89141
9.8916
9.89173
9.89179
8.53368
8.54083
8.55507
8.5763
8.60434
8.63886
8.67939
8.72531
8.7758
8.82995
8.88676
8.94523
9.00436
9.06328
9.12121
9.17749
9.23161
9.28316
9.33188
9.37762
9.4203
9.45996
9.49666
9.53053
9.56173
9.59041
9.61676
9.64095
9.66316
9.68355
9.70228
9.71948
9.73526
9.74974
9.763
9.77512
9.78617
9.79621
9.80531
9.81353
9.82091
9.82752
9.83341
9.83863
9.84325
9.84732
9.85088
9.85399
9.8567
9.85905
9.86108
9.86282
9.86431
9.86558
9.86666
9.86756
9.86832
9.86894
9.86945
9.86986
9.87017
9.8704
9.87055
9.87062
8.29372
8.30206
8.31871
8.34357
8.37647
8.41707
8.46483
8.51901
8.57864
8.6426
8.70966
8.77858
8.84818
8.9174
8.98531
9.05115
9.11431
9.17434
9.23094
9.28397
9.33335
9.37915
9.42147
9.46047
9.49634
9.5293
9.55955
9.58731
9.61278
9.63618
9.65766
9.67739
9.69551
9.71214
9.72737
9.74129
9.75398
9.76552
9.77597
9.78539
9.79386
9.80143
9.80816
9.81414
9.81941
9.82404
9.8281
9.83163
9.83471
9.83737
9.83966
9.84163
9.84331
9.84475
9.84596
9.84698
9.84783
9.84853
9.8491
9.84956
9.84991
9.85016
9.85033
9.85041
8.06022
8.06972
8.08871
8.11714
8.15485
8.20151
8.25654
8.31909
8.38801
8.46194
8.5394
8.61889
8.69902
8.77854
8.85636
8.93163
9.00365
9.07193
9.13616
9.19617
9.25194
9.30356
9.35117
9.39498
9.43523
9.47217
9.50605
9.53712
9.56562
9.59179
9.61583
9.63793
9.65823
9.67686
9.69393
9.70954
9.72377
9.7367
9.7484
9.75896
9.76842
9.77688
9.7844
9.79105
9.79691
9.80206
9.80656
9.81048
9.81387
9.81681
9.81934
9.82151
9.82336
9.82494
9.82627
9.82738
9.82831
9.82908
9.8297
9.8302
9.83058
9.83086
9.83104
9.83113
7.83272
7.84334
7.8646
7.8965
7.93896
7.99167
8.05404
8.1251
8.20351
8.28762
8.37568
8.46591
8.55666
8.64649
8.73419
8.81876
8.89948
8.97579
9.04738
9.11409
9.17593
9.23304
9.28562
9.33394
9.37826
9.41889
9.45613
9.49025
9.52156
9.55029
9.5767
9.60098
9.62331
9.64381
9.6626
9.67978
9.69545
9.70968
9.72256
9.73415
9.74455
9.75382
9.76205
9.76933
9.77572
9.78133
9.78622
9.79047
9.79416
9.79734
9.80007
9.80241
9.80441
9.8061
9.80753
9.80873
9.80972
9.81054
9.81121
9.81174
9.81214
9.81244
9.81263
9.81273
7.61088
7.62256
7.64599
7.68125
7.72836
7.78711
7.85688
7.93662
8.02476
8.11934
8.21825
8.3194
8.4209
8.52109
8.61861
8.7124
8.80165
8.88578
8.96446
9.03757
9.10516
9.16744
9.22467
9.27717
9.32528
9.36932
9.40965
9.44659
9.48045
9.51155
9.54014
9.56645
9.59065
9.61289
9.63329
9.65195
9.66895
9.68439
9.69836
9.71092
9.72218
9.7322
9.74108
9.74891
9.75578
9.7618
9.76703
9.77158
9.77551
9.7789
9.78181
9.78429
9.7864
9.78819
9.7897
9.79097
9.79202
9.79288
9.79358
9.79414
9.79456
9.79487
9.79507
9.79517
7.39443
7.40709
7.43255
7.47103
7.52268
7.5874
7.66467
7.75329
7.85144
7.95681
8.06687
8.17918
8.29156
8.40215
8.50947
8.61237
8.70998
8.80171
8.88722
8.96643
9.03946
9.10658
9.16814
9.22452
9.27611
9.32329
9.36645
9.40596
9.44218
9.47543
9.50603
9.53421
9.56015
9.58402
9.60591
9.62594
9.64419
9.66076
9.67574
9.6892
9.70124
9.71194
9.72141
9.72974
9.73703
9.7434
9.74894
9.75374
9.75788
9.76145
9.7645
9.7671
9.76931
9.77118
9.77275
9.77407
9.77516
9.77606
9.77678
9.77735
9.77779
9.77811
9.77832
9.77842
7.18316
7.19672
7.22405
7.26555
7.32156
7.3922
7.47701
7.57475
7.68327
7.7998
7.92135
8.04507
8.16847
8.28952
8.40661
8.51851
8.62432
8.72343
8.8155
8.90049
8.97862
9.05025
9.11583
9.17579
9.23058
9.28064
9.32639
9.36823
9.40657
9.4418
9.47423
9.50413
9.53169
9.55707
9.58036
9.60167
9.62108
9.6387
9.65461
9.66891
9.68167
9.69299
9.70298
9.71175
9.71942
9.7261
9.7319
9.73691
9.74122
9.74493
9.7481
9.75079
9.75308
9.75501
9.75663
9.75799
9.75911
9.76002
9.76077
9.76135
9.7618
9.76213
9.76234
9.76244
6.97694
6.99128
7.0203
7.06456
7.12472
7.20115
7.29357
7.40068
7.51997
7.64811
7.78152
7.91692
8.0515
8.18304
8.30984
8.43063
8.54447
8.65074
8.7491
8.83956
8.92246
8.99827
9.06754
9.13078
9.18851
9.24119
9.28928
9.33323
9.37349
9.41049
9.4446
9.47609
9.50516
9.53194
9.55654
9.57904
9.59954
9.61814
9.63492
9.64998
9.6634
9.67528
9.68574
9.6949
9.70289
9.70983
9.71584
9.72103
9.72549
9.7293
9.73256
9.73533
9.73767
9.73965
9.7413
9.74268
9.74382
9.74475
9.7455
9.74609
9.74655
9.74688
9.74709
9.7472
6.77568
6.79068
6.82114
6.86788
6.93189
7.01392
7.114
7.23077
7.36132
7.50155
7.64725
7.79461
7.94051
8.08255
8.21901
8.34856
8.47026
8.58347
8.68784
8.78344
8.87075
8.95041
9.02307
9.08931
9.14971
9.20476
9.25496
9.30081
9.34279
9.38138
9.417
9.44996
9.48043
9.50854
9.53436
9.55798
9.57949
9.59899
9.61658
9.63234
9.64637
9.65876
9.66963
9.67912
9.68737
9.69453
9.70072
9.70605
9.71062
9.71452
9.71785
9.72067
9.72304
9.72505
9.72672
9.72811
9.72926
9.7302
9.73095
9.73155
9.732
9.73233
9.73254
9.73265
6.57934
6.59485
6.62648
6.67533
6.74282
6.83023
6.93796
7.06474
7.20709
7.36
7.51842
7.67804
7.83536
7.98791
8.13394
8.27211
8.4015
8.52143
8.63152
8.73191
8.82328
8.90646
8.9822
9.05117
9.11399
9.17118
9.22327
9.2708
9.3143
9.3543
9.3913
9.42562
9.4574
9.48674
9.51371
9.53838
9.56083
9.58118
9.59951
9.61592
9.6305
9.64335
9.65457
9.66434
9.67282
9.68015
9.68648
9.69192
9.69657
9.70054
9.70391
9.70676
9.70916
9.71117
9.71285
9.71425
9.7154
9.71633
9.71708
9.71767
9.71812
9.71845
9.71866
9.71876
6.38792
6.40378
6.43625
6.48679
6.55732
6.64976
6.76512
6.90228
7.05712
7.22333
7.39494
7.5671
7.73594
7.89894
8.05444
8.20108
8.33797
8.46444
8.57996
8.68477
8.77983
8.86619
8.94471
9.01615
9.08116
9.14027
9.19405
9.24306
9.28788
9.32913
9.36736
9.40294
9.43596
9.46647
9.49452
9.52016
9.54349
9.56462
9.58364
9.60065
9.61575
9.62899
9.64053
9.65053
9.65918
9.66665
9.67308
9.6786
9.68331
9.68731
9.69071
9.69357
9.69597
9.69798
9.69966
9.70105
9.70219
9.70312
9.70386
9.70444
9.70488
9.7052
9.70541
9.70551
6.20145
6.21747
6.25044
6.30218
6.3752
6.47222
6.59512
6.7431
6.91125
7.09148
7.27674
7.46173
7.64214
7.8155
7.98034
8.13527
8.27948
8.4123
8.53297
8.64181
8.74015
8.82938
8.9104
8.98405
9.05104
9.11187
9.16713
9.21744
9.2634
9.3057
9.34504
9.38181
9.416
9.44761
9.47668
9.50324
9.52738
9.54924
9.5689
9.58647
9.60204
9.61564
9.62743
9.6376
9.64639
9.65396
9.66046
9.66603
9.67078
9.6748
9.6782
9.68105
9.68344
9.68544
9.68711
9.68849
9.68961
9.69052
9.69125
9.69181
9.69225
9.69256
9.69276
9.69286
6.01996
6.03596
6.06905
6.12143
6.19629
6.29734
6.4276
6.5869
6.76937
6.96439
7.16377
7.36187
7.55383
7.73738
7.91144
8.07445
8.2258
8.36485
8.49037
8.6028
8.70402
8.7958
8.87905
8.95467
9.02346
9.08582
9.14237
9.19381
9.24071
9.28388
9.32422
9.36211
9.39742
9.43008
9.46013
9.48754
9.51243
9.53497
9.55523
9.57331
9.58931
9.60323
9.61522
9.62552
9.63441
9.64204
9.64858
9.65418
9.65894
9.66296
9.66634
9.66918
9.67154
9.67352
9.67517
9.67652
9.67763
9.67851
9.67922
9.67977
9.68019
9.6805
9.68069
9.68079
5.84352
5.85929
5.8921
5.94452
6.02046
6.12483
6.26215
6.43334
6.63142
6.84208
7.05597
7.26749
7.4709
7.6644
7.84754
8.01841
8.17669
8.32191
8.452
8.56752
8.67117
8.76523
8.85045
8.92782
8.99825
9.06196
9.11961
9.17203
9.21968
9.26354
9.30474
9.34374
9.38013
9.41379
9.44478
9.47298
9.49855
9.52174
9.54254
9.5611
9.57752
9.59172
9.60385
9.61423
9.62317
9.63084
9.6374
9.643
9.64775
9.65175
9.65511
9.65791
9.66024
9.66218
9.6638
9.66513
9.6662
9.66707
9.66775
9.66828
9.66869
9.66898
9.66917
9.66927
5.67219
5.68754
5.71965
5.77146
5.84763
5.95441
6.09833
6.28206
6.49743
6.72457
6.95327
7.17858
7.39324
7.59632
7.78847
7.9669
8.13189
8.28336
8.41772
8.53575
8.64135
8.73747
8.82439
8.90328
8.97526
9.04014
9.09872
9.15199
9.2002
9.24452
9.28648
9.32661
9.36405
9.39865
9.43056
9.45949
9.48569
9.50948
9.53078
9.54978
9.56662
9.58106
9.59327
9.60367
9.61264
9.62031
9.62686
9.63246
9.63718
9.64114
9.64446
9.64721
9.64949
9.65139
9.65298
9.65428
9.65532
9.65615
9.6568
9.65732
9.65771
9.65799
9.65817
9.65826
5.50602
5.52076
5.55176
5.60228
5.67772
5.78583
5.93565
6.1326
6.36752
6.61198
6.85558
7.09517
7.32073
7.53287
7.73407
7.91967
8.0911
8.24908
8.38742
8.50725
8.61426
8.71231
8.80069
8.88086
8.95435
9.02023
9.07954
9.13359
9.18216
9.22669
9.26929
9.31064
9.3491
9.38458
9.41742
9.44701
9.47374
9.49814
9.51989
9.53929
9.55655
9.5712
9.58342
9.59379
9.60277
9.61041
9.61693
9.62251
9.62719
9.6311
9.63437
9.63706
9.63927
9.64112
9.64268
9.64394
9.64495
9.64574
9.64636
9.64685
9.64722
9.64749
9.64766
9.64775
5.34509
5.35903
5.38851
5.43706
5.51073
5.61886
5.77358
5.98443
6.24197
6.50442
6.76272
7.01734
7.25325
7.47371
7.68419
7.87647
8.05394
8.21902
8.36099
8.48177
8.5896
8.68958
8.77916
8.86035
8.9354
9.0021
9.06193
9.11676
9.16547
9.20991
9.25303
9.29576
9.33523
9.3715
9.4053
9.43547
9.46265
9.48765
9.5098
9.52955
9.54728
9.56211
9.57426
9.58454
9.59351
9.60111
9.60756
9.61312
9.61774
9.62158
9.6248
9.62742
9.62955
9.63134
9.63286
9.63409
9.63506
9.63581
9.6364
9.63686
9.63721
9.63747
9.63763
9.63771
5.18943
5.2024
5.23
5.27588
5.34669
5.45329
5.61149
5.83684
6.12129
6.4021
6.67438
6.94529
7.19068
7.41839
7.6388
7.83703
8.01998
8.19319
8.3384
8.45904
8.56701
8.66917
8.75964
8.84152
8.91833
8.98563
9.04573
9.10143
9.15006
9.19404
9.23753
9.28195
9.32236
9.3593
9.39416
9.42481
9.45232
9.47799
9.50045
9.52049
9.5388
9.55376
9.56574
9.57586
9.58483
9.59235
9.59872
9.60426
9.60881
9.61256
9.61572
9.61826
9.6203
9.62203
9.62352
9.62471
9.62563
9.62634
9.62689
9.62732
9.62766
9.6279
9.62805
9.62813
5.03908
5.05094
5.0763
5.11887
5.18568
5.28901
5.44873
5.68888
6.0063
6.30523
6.59007
6.87933
7.13288
7.36635
7.59796
7.80108
7.98863
8.17173
8.31964
8.43877
8.54608
8.651
8.74196
8.82409
8.90312
8.97071
9.03074
9.08759
9.13585
9.17891
9.2226
9.26921
9.31046
9.34787
9.38401
9.41498
9.44265
9.46913
9.49179
9.51202
9.53106
9.54612
9.55781
9.5677
9.5767
9.58412
9.59036
9.5959
9.60036
9.604
9.60711
9.60956
9.6115
9.61315
9.61462
9.61577
9.61664
9.6173
9.61781
9.61821
9.61853
9.61876
9.6189
9.61897
4.89405
4.90467
4.9275
4.96617
5.02786
5.12594
5.28459
5.53921
5.8983
6.21409
6.50898
6.82004
7.07973
7.31677
7.56192
7.76836
7.95913
8.15494
8.30474
8.42063
8.52632
8.6351
8.72599
8.80775
8.88978
8.95724
9.01675
9.07526
9.12282
9.16438
9.20802
9.25759
9.29948
9.33708
9.37485
9.40593
9.43354
9.46105
9.48377
9.50406
9.52409
9.53917
9.55042
9.55998
9.5691
9.57637
9.58244
9.58802
9.59237
9.59588
9.59895
9.6013
9.60311
9.60468
9.60615
9.60726
9.60806
9.60867
9.60913
9.6095
9.60981
9.61003
9.61015
9.61022
4.75434
4.76363
4.78367
4.81792
4.87341
4.96415
5.11834
5.38599
5.79921
6.12896
6.42987
6.76831
7.0311
7.26858
7.53119
7.73857
7.93042
8.14332
8.29378
8.40428
8.50713
8.62162
8.7116
8.7921
8.87843
8.94513
9.00346
9.06454
9.11094
9.15028
9.1935
9.24722
9.2894
9.32674
9.36673
9.39761
9.42483
9.4538
9.47633
9.49647
9.51791
9.53289
9.54351
9.55265
9.562
9.56907
9.57492
9.58061
9.58481
9.58815
9.59122
9.59344
9.59511
9.59659
9.59808
9.59914
9.59988
9.60043
9.60085
9.60119
9.60149
9.60168
9.6018
9.60185
4.61992
4.6278
4.64488
4.67428
4.72261
4.80383
4.94933
5.2266
5.71184
6.0501
6.3509
6.72553
6.98684
7.22027
7.5067
7.71147
7.90111
8.13773
8.28682
8.38931
8.48774
8.6109
8.69868
8.77663
8.86931
8.93429
8.99051
9.05558
9.1002
9.13646
9.17869
9.23833
9.28019
9.31662
9.35978
9.38998
9.41635
9.44742
9.46944
9.48909
9.51257
9.52728
9.53704
9.54562
9.55542
9.56221
9.56774
9.57365
9.57766
9.58078
9.58391
9.58599
9.58748
9.58885
9.59041
9.59141
9.59207
9.59257
9.59294
9.59324
9.59353
9.59372
9.59382
9.59386
4.49073
4.49717
4.51116
4.53539
4.57573
4.64532
4.77706
5.05737
5.64016
5.97772
6.26941
6.69378
6.94676
7.1698
7.48987
7.68677
7.86929
8.13946
8.28394
8.37533
8.46721
8.60351
8.68712
8.76063
8.86284
8.92463
8.97742
9.04867
9.0906
9.12276
9.16311
9.23126
9.27182
9.3064
9.35418
9.38299
9.40785
9.44207
9.46303
9.48173
9.50817
9.52231
9.53094
9.5388
9.54937
9.55574
9.56084
9.56716
9.57089
9.57374
9.577
9.5789
9.58019
9.58144
9.58311
9.58405
9.58462
9.58507
9.58538
9.58564
9.58594
9.5861
9.58619
9.58623
4.36672
4.37169
4.38252
4.40139
4.43312
4.48916
4.60134
4.87318
5.58976
5.9119
6.18168
6.67609
6.91065
7.11435
7.48289
7.66421
7.83237
8.15042
8.28511
8.36192
8.44429
8.60034
8.67681
8.74322
8.85963
8.91607
8.96353
9.04422
9.08215
9.10905
9.14617
9.22654
9.26426
9.29565
9.35022
9.3766
9.39904
9.43792
9.45708
9.47412
9.50487
9.51796
9.52517
9.53208
9.5439
9.54965
9.55416
9.56113
9.56449
9.56697
9.57049
9.57217
9.57323
9.57431
9.57619
9.57703
9.57751
9.5779
9.57815
9.57837
9.57868
9.57883
9.5789
9.57893
4.2478
4.25131
4.25898
4.27238
4.2951
4.33602
4.42251
4.66697
5.56822
5.85249
6.0826
6.67674
6.8782
7.05019
7.48888
7.64354
7.78694
8.17328
8.29015
8.34873
8.41739
8.60269
8.66763
8.72318
8.86062
8.90848
8.948
9.04286
9.07481
9.09525
9.12704
9.22491
9.25746
9.28381
9.34835
9.37076
9.3895
9.43529
9.45152
9.46591
9.50291
9.5142
9.51967
9.52532
9.53908
9.54391
9.5476
9.55562
9.55843
9.56043
9.56439
9.56578
9.56657
9.56745
9.56964
9.57035
9.57071
9.57105
9.57124
9.57141
9.57176
9.57188
9.57193
9.57195
4.13386
4.13593
4.14047
4.14843
4.162
4.18677
4.24173
4.42918
5.58577
5.79904
5.96535
6.70164
6.849
6.97234
7.51216
7.62446
7.72847
8.21181
8.29856
8.33549
8.38445
8.61237
8.65943
8.69897
8.8671
8.90174
8.92973
9.04546
9.06851
9.08136
9.10466
9.22739
9.25134
9.27012
9.34916
9.3654
9.37871
9.4346
9.44633
9.45666
9.50263
9.51097
9.5144
9.51835
9.53502
9.53849
9.54106
9.55067
9.55268
9.55405
9.55872
9.5597
9.56019
9.56081
9.56347
9.56398
9.56421
9.56451
9.56463
9.56475
9.56515
9.56523
9.56526
9.56528
4.02478
4.02547
4.02696
4.02959
4.03408
4.04233
4.06137
4.14699
5.65588
5.75057
5.821
6.75874
6.82243
6.87436
7.55859
7.60668
7.65111
8.27107
8.30943
8.32215
8.34284
8.63186
8.65202
8.66854
8.88085
8.89567
8.9073
9.05317
9.06306
9.06748
9.07765
9.23534
9.24578
9.25362
9.35348
9.36044
9.36599
9.43644
9.44144
9.44581
9.50449
9.50816
9.50934
9.51097
9.53189
9.53337
9.53441
9.54636
9.54722
9.54776
9.55351
9.55392
9.55409
9.55434
9.55769
9.55791
9.55799
9.55827
9.55832
9.55836
9.55885
9.55889
9.5589
9.5589
)
;

boundaryField
{
    left
    {
        type            zeroGradient;
    }
    right
    {
        type            zeroGradient;
    }
    interface
    {
        type            fixedValue;
        value           nonuniform List<scalar> 
64
(
3.97145
3.97145
3.97145
3.97145
3.97145
3.97145
3.97145
3.97145
5.72752
5.72752
5.72752
6.80975
6.80975
6.80975
7.59809
7.59809
7.59809
8.31541
8.31541
8.31541
8.31541
8.64849
8.64849
8.64849
8.89279
8.89279
8.89279
9.06054
9.06054
9.06054
9.06054
9.24313
9.24313
9.24313
9.35805
9.35805
9.35805
9.43907
9.43907
9.43907
9.50685
9.50685
9.50685
9.50685
9.53087
9.53087
9.53087
9.54455
9.54455
9.54455
9.5511
9.5511
9.5511
9.5511
9.55495
9.55495
9.55495
9.55523
9.55523
9.55523
9.55578
9.55578
9.55578
9.55578
)
;
    }
    bottom
    {
        type            fixedValue;
        value           uniform 10;
    }
    defaultFaces
    {
        type            empty;
    }
}


// ************************************************************************* //
