/*--------------------------------*- C++ -*----------------------------------*\
| =========                 |                                                 |
| \\      /  F ield         | OpenFOAM: The Open Source CFD Toolbox           |
|  \\    /   O peration     | Version:  5.x                                   |
|   \\  /    A nd           | Web:      www.OpenFOAM.org                      |
|    \\/     M anipulation  |                                                 |
\*---------------------------------------------------------------------------*/
FoamFile
{
    version     2.0;
    format      ascii;
    class       volScalarField;
    location    "0.5";
    object      gradTy;
}
// * * * * * * * * * * * * * * * * * * * * * * * * * * * * * * * * * * * * * //

dimensions      [0 -1 0 1 0 0 0];

internalField   nonuniform List<scalar> 
2048
(
-29.6072
-29.5885
-29.5515
-29.497
-29.4261
-29.3405
-29.2422
-29.1336
-29.0174
-28.8965
-28.7737
-28.6517
-28.5329
-28.4193
-28.3124
-28.2132
-28.1225
-28.0404
-27.9669
-27.9017
-27.8444
-27.7942
-27.7507
-27.7131
-27.6807
-27.653
-27.6294
-27.6093
-27.5922
-27.5777
-27.5655
-27.5552
-27.5465
-27.5392
-27.533
-27.5278
-27.5235
-27.5198
-27.5168
-27.5142
-27.5121
-27.5103
-27.5088
-27.5075
-27.5065
-27.5056
-27.5049
-27.5043
-27.5038
-27.5033
-27.503
-27.5027
-27.5024
-27.5022
-27.502
-27.5018
-27.5016
-27.5015
-27.5014
-27.5012
-27.5012
-27.5011
-27.5011
-27.501
-29.6198
-29.6008
-29.5632
-29.5077
-29.4355
-29.3482
-29.2478
-29.1369
-29.0183
-28.895
-28.77
-28.646
-28.5255
-28.4106
-28.3028
-28.203
-28.112
-28.0299
-27.9566
-27.8918
-27.8348
-27.7852
-27.7421
-27.705
-27.6732
-27.6459
-27.6227
-27.603
-27.5862
-27.5721
-27.5601
-27.55
-27.5415
-27.5343
-27.5283
-27.5232
-27.519
-27.5154
-27.5124
-27.5099
-27.5078
-27.5061
-27.5046
-27.5034
-27.5024
-27.5016
-27.5008
-27.5002
-27.4998
-27.4993
-27.499
-27.4987
-27.4984
-27.4982
-27.498
-27.4978
-27.4976
-27.4975
-27.4974
-27.4973
-27.4972
-27.4971
-27.4971
-27.4971
-29.6439
-29.6243
-29.5855
-29.5281
-29.4534
-29.3628
-29.2586
-29.1434
-29.0202
-28.8922
-28.7628
-28.635
-28.5113
-28.3939
-28.2843
-28.1835
-28.092
-28.01
-27.9371
-27.8729
-27.8168
-27.768
-27.726
-27.6898
-27.6589
-27.6325
-27.6101
-27.591
-27.5749
-27.5613
-27.5498
-27.5401
-27.532
-27.5251
-27.5193
-27.5145
-27.5105
-27.5071
-27.5042
-27.5018
-27.4998
-27.4982
-27.4968
-27.4956
-27.4947
-27.4938
-27.4932
-27.4926
-27.4921
-27.4917
-27.4914
-27.4911
-27.4909
-27.4906
-27.4904
-27.4903
-27.4901
-27.49
-27.4899
-27.4898
-27.4897
-27.4896
-27.4896
-27.4895
-29.6783
-29.6579
-29.6175
-29.5576
-29.4792
-29.384
-29.2742
-29.1526
-29.0227
-28.8881
-28.7523
-28.6189
-28.4906
-28.3697
-28.2577
-28.1555
-28.0634
-27.9815
-27.9092
-27.846
-27.7912
-27.7438
-27.7032
-27.6684
-27.6388
-27.6136
-27.5923
-27.5743
-27.559
-27.5462
-27.5354
-27.5263
-27.5186
-27.5122
-27.5068
-27.5023
-27.4985
-27.4953
-27.4926
-27.4904
-27.4886
-27.487
-27.4857
-27.4846
-27.4837
-27.483
-27.4824
-27.4819
-27.4814
-27.481
-27.4807
-27.4805
-27.4802
-27.48
-27.4798
-27.4797
-27.4795
-27.4794
-27.4793
-27.4792
-27.4791
-27.479
-27.479
-27.479
-29.7223
-29.7009
-29.6585
-29.5954
-29.5125
-29.4114
-29.2944
-29.1646
-29.0259
-28.8824
-28.7385
-28.5978
-28.4637
-28.3384
-28.2234
-28.1195
-28.0269
-27.9453
-27.874
-27.8123
-27.7591
-27.7136
-27.6747
-27.6417
-27.6138
-27.5902
-27.5702
-27.5534
-27.5393
-27.5274
-27.5174
-27.5091
-27.502
-27.4961
-27.4912
-27.487
-27.4835
-27.4806
-27.4782
-27.4762
-27.4745
-27.4731
-27.4719
-27.4709
-27.4701
-27.4694
-27.4689
-27.4684
-27.468
-27.4677
-27.4674
-27.4672
-27.4669
-27.4668
-27.4666
-27.4664
-27.4663
-27.4662
-27.466
-27.4659
-27.4658
-27.4658
-27.4657
-27.4657
-29.7749
-29.7525
-29.7079
-29.6412
-29.5531
-29.445
-29.3192
-29.1793
-29.0297
-28.8753
-28.7211
-28.5717
-28.4305
-28.3001
-28.1818
-28.0762
-27.9832
-27.9022
-27.8323
-27.7724
-27.7213
-27.678
-27.6414
-27.6106
-27.5846
-27.5628
-27.5445
-27.5292
-27.5163
-27.5056
-27.4965
-27.489
-27.4826
-27.4773
-27.4729
-27.4692
-27.4661
-27.4635
-27.4613
-27.4595
-27.458
-27.4568
-27.4557
-27.4549
-27.4542
-27.4536
-27.4531
-27.4527
-27.4523
-27.452
-27.4518
-27.4516
-27.4514
-27.4512
-27.451
-27.4509
-27.4508
-27.4506
-27.4505
-27.4504
-27.4503
-27.4503
-27.4502
-27.4502
-29.8354
-29.812
-29.7652
-29.6947
-29.6008
-29.4847
-29.3487
-29.1967
-29.0339
-28.8664
-28.7001
-28.5404
-28.3911
-28.2549
-28.133
-28.0258
-27.9327
-27.8527
-27.7847
-27.7271
-27.6786
-27.638
-27.604
-27.5756
-27.552
-27.5322
-27.5158
-27.5021
-27.4907
-27.4811
-27.4732
-27.4665
-27.461
-27.4564
-27.4525
-27.4492
-27.4465
-27.4443
-27.4424
-27.4409
-27.4396
-27.4385
-27.4376
-27.4368
-27.4362
-27.4357
-27.4353
-27.435
-27.4347
-27.4344
-27.4342
-27.434
-27.4339
-27.4337
-27.4336
-27.4334
-27.4333
-27.4332
-27.4331
-27.433
-27.4329
-27.4328
-27.4328
-27.4328
-29.9032
-29.8789
-29.83
-29.7557
-29.6557
-29.5308
-29.383
-29.2169
-29.0386
-28.8555
-28.6751
-28.5034
-28.3451
-28.2027
-28.0773
-27.9687
-27.876
-27.7976
-27.7318
-27.6771
-27.6317
-27.5942
-27.5632
-27.5376
-27.5165
-27.4991
-27.4847
-27.4727
-27.4629
-27.4547
-27.4479
-27.4422
-27.4375
-27.4335
-27.4303
-27.4275
-27.4252
-27.4234
-27.4218
-27.4205
-27.4194
-27.4185
-27.4178
-27.4172
-27.4166
-27.4162
-27.4159
-27.4156
-27.4154
-27.4152
-27.415
-27.4149
-27.4147
-27.4146
-27.4145
-27.4144
-27.4142
-27.4141
-27.414
-27.4139
-27.4138
-27.4138
-27.4137
-27.4137
-29.9776
-29.9526
-29.9019
-29.8241
-29.718
-29.5835
-29.4226
-29.2401
-29.0436
-28.8424
-28.6456
-28.4606
-28.2923
-28.1435
-28.0147
-27.9052
-27.8134
-27.7372
-27.6745
-27.6232
-27.5814
-27.5474
-27.5197
-27.4972
-27.4789
-27.4639
-27.4517
-27.4416
-27.4334
-27.4266
-27.421
-27.4163
-27.4125
-27.4093
-27.4066
-27.4044
-27.4025
-27.401
-27.3998
-27.3987
-27.3979
-27.3972
-27.3966
-27.3961
-27.3957
-27.3954
-27.3951
-27.3949
-27.3947
-27.3946
-27.3945
-27.3944
-27.3942
-27.3941
-27.394
-27.3939
-27.3938
-27.3937
-27.3936
-27.3935
-27.3934
-27.3934
-27.3933
-27.3933
-30.0577
-30.0324
-29.9805
-29.8998
-29.7878
-29.6434
-29.4678
-29.2666
-29.0489
-28.8267
-28.6111
-28.4112
-28.2324
-28.0771
-27.9454
-27.8356
-27.7454
-27.6721
-27.6131
-27.5659
-27.5282
-27.4981
-27.4741
-27.455
-27.4396
-27.4272
-27.4173
-27.4092
-27.4026
-27.3973
-27.3929
-27.3893
-27.3863
-27.3839
-27.3818
-27.3801
-27.3787
-27.3776
-27.3766
-27.3759
-27.3752
-27.3747
-27.3743
-27.3739
-27.3737
-27.3735
-27.3733
-27.3731
-27.373
-27.3729
-27.3728
-27.3728
-27.3727
-27.3726
-27.3725
-27.3724
-27.3723
-27.3722
-27.3721
-27.372
-27.372
-27.3719
-27.3718
-27.3719
-30.1426
-30.1175
-30.0653
-29.9826
-29.8655
-29.711
-29.5195
-29.2967
-29.0545
-28.8078
-28.5711
-28.3548
-28.165
-28.0035
-27.8694
-27.7602
-27.6725
-27.603
-27.5484
-27.5058
-27.4727
-27.447
-27.427
-27.4114
-27.3991
-27.3895
-27.3819
-27.3758
-27.371
-27.3672
-27.364
-27.3615
-27.3594
-27.3576
-27.3562
-27.355
-27.3541
-27.3533
-27.3527
-27.3521
-27.3517
-27.3514
-27.3511
-27.3509
-27.3508
-27.3507
-27.3506
-27.3505
-27.3504
-27.3504
-27.3503
-27.3503
-27.3503
-27.3502
-27.3502
-27.3501
-27.35
-27.3499
-27.3498
-27.3497
-27.3496
-27.3496
-27.3495
-27.3496
-30.2315
-30.2072
-30.1558
-30.0726
-29.9515
-29.7872
-29.5784
-29.3311
-29.0601
-28.7853
-28.5247
-28.2907
-28.0895
-27.9224
-27.7869
-27.6793
-27.5952
-27.5303
-27.4809
-27.4436
-27.4156
-27.3946
-27.3789
-27.3669
-27.3579
-27.3511
-27.3459
-27.3419
-27.3388
-27.3365
-27.3346
-27.333
-27.3318
-27.3308
-27.33
-27.3293
-27.3288
-27.3284
-27.3281
-27.3278
-27.3276
-27.3275
-27.3274
-27.3273
-27.3273
-27.3272
-27.3272
-27.3272
-27.3272
-27.3272
-27.3272
-27.3272
-27.3272
-27.3272
-27.3271
-27.3271
-27.327
-27.3269
-27.3268
-27.3267
-27.3267
-27.3266
-27.3266
-27.3267
-30.3233
-30.3005
-30.2514
-30.1696
-30.0462
-29.8729
-29.6456
-29.3704
-29.0658
-28.7583
-28.471
-28.2181
-28.0057
-27.8338
-27.6981
-27.5934
-27.514
-27.4547
-27.4112
-27.3799
-27.3575
-27.3415
-27.3302
-27.3221
-27.3164
-27.3124
-27.3096
-27.3077
-27.3064
-27.3055
-27.3048
-27.3043
-27.3039
-27.3036
-27.3034
-27.3033
-27.3032
-27.3031
-27.3031
-27.3031
-27.3031
-27.3031
-27.3032
-27.3032
-27.3033
-27.3034
-27.3034
-27.3035
-27.3035
-27.3036
-27.3036
-27.3037
-27.3037
-27.3037
-27.3037
-27.3036
-27.3036
-27.3035
-27.3034
-27.3033
-27.3033
-27.3032
-27.3032
-27.3033
-30.4168
-30.3966
-30.3514
-30.2734
-30.1502
-29.9694
-29.7227
-29.4153
-29.0711
-28.7258
-28.4089
-28.1361
-27.9131
-27.7376
-27.6033
-27.5029
-27.4294
-27.3766
-27.3399
-27.3151
-27.2987
-27.2881
-27.2814
-27.2773
-27.275
-27.2738
-27.2734
-27.2735
-27.274
-27.2745
-27.275
-27.2755
-27.2759
-27.2763
-27.2767
-27.277
-27.2773
-27.2776
-27.2778
-27.2781
-27.2783
-27.2785
-27.2787
-27.2789
-27.2791
-27.2792
-27.2794
-27.2795
-27.2796
-27.2797
-27.2798
-27.2798
-27.2799
-27.2799
-27.2799
-27.2799
-27.2799
-27.2798
-27.2797
-27.2796
-27.2796
-27.2795
-27.2796
-27.2796
-30.511
-30.4942
-30.4551
-30.3837
-30.2639
-30.0779
-29.8113
-29.4671
-29.0756
-28.6867
-28.3372
-28.044
-27.8112
-27.634
-27.5028
-27.4083
-27.3419
-27.2967
-27.2674
-27.2497
-27.2399
-27.2348
-27.2329
-27.2328
-27.2338
-27.2355
-27.2375
-27.2396
-27.2417
-27.2437
-27.2454
-27.2468
-27.248
-27.249
-27.2499
-27.2507
-27.2514
-27.252
-27.2525
-27.253
-27.2534
-27.2538
-27.2542
-27.2545
-27.2547
-27.255
-27.2552
-27.2553
-27.2555
-27.2556
-27.2558
-27.2559
-27.2559
-27.256
-27.256
-27.256
-27.256
-27.256
-27.2559
-27.2558
-27.2558
-27.2557
-27.2557
-27.2558
-30.6045
-30.5923
-30.5614
-30.5
-30.3878
-30.2001
-29.9138
-29.527
-29.0786
-28.6392
-28.2547
-27.9407
-27.6998
-27.5231
-27.397
-27.3101
-27.2523
-27.2154
-27.1943
-27.1844
-27.1813
-27.1821
-27.185
-27.1889
-27.1932
-27.1977
-27.202
-27.2061
-27.2098
-27.2132
-27.216
-27.2183
-27.2202
-27.2219
-27.2233
-27.2245
-27.2256
-27.2265
-27.2273
-27.228
-27.2286
-27.2291
-27.2296
-27.23
-27.2304
-27.2307
-27.231
-27.2312
-27.2314
-27.2316
-27.2317
-27.2319
-27.232
-27.2321
-27.2321
-27.2322
-27.2322
-27.2321
-27.2321
-27.232
-27.2319
-27.2318
-27.2319
-27.2318
-30.6962
-30.6896
-30.6692
-30.6217
-30.5221
-30.3376
-30.0329
-29.597
-29.079
-28.5814
-28.1597
-27.8252
-27.5785
-27.4052
-27.2864
-27.209
-27.1611
-27.1333
-27.121
-27.1194
-27.1236
-27.1302
-27.1379
-27.1458
-27.1534
-27.1605
-27.1671
-27.1731
-27.1784
-27.1831
-27.187
-27.1902
-27.1928
-27.195
-27.1968
-27.1985
-27.1999
-27.2011
-27.2021
-27.2031
-27.2038
-27.2045
-27.2051
-27.2056
-27.2061
-27.2065
-27.2068
-27.2071
-27.2074
-27.2076
-27.2078
-27.2079
-27.2081
-27.2082
-27.2083
-27.2083
-27.2083
-27.2083
-27.2083
-27.2082
-27.2081
-27.208
-27.208
-27.2079
-30.7849
-30.785
-30.7775
-30.7478
-30.667
-30.4923
-30.172
-29.6796
-29.0747
-28.5104
-28.0511
-27.6968
-27.4471
-27.2809
-27.1716
-27.1055
-27.0689
-27.0508
-27.0478
-27.0551
-27.0669
-27.0794
-27.0919
-27.1038
-27.1144
-27.1242
-27.133
-27.1407
-27.1475
-27.1536
-27.1585
-27.1624
-27.1656
-27.1683
-27.1706
-27.1727
-27.1744
-27.1759
-27.1772
-27.1783
-27.1792
-27.1801
-27.1808
-27.1814
-27.1819
-27.1824
-27.1828
-27.1831
-27.1834
-27.1837
-27.1839
-27.1841
-27.1843
-27.1844
-27.1845
-27.1846
-27.1846
-27.1846
-27.1846
-27.1845
-27.1844
-27.1842
-27.1842
-27.1841
-30.8694
-30.877
-30.8847
-30.8772
-30.8221
-30.6661
-30.3357
-29.7782
-29.0628
-28.4229
-27.9275
-27.5543
-27.3057
-27.1508
-27.053
-27.0003
-26.9765
-26.9683
-26.975
-26.9919
-27.0117
-27.0299
-27.0471
-27.0628
-27.0764
-27.0887
-27.0996
-27.1089
-27.1173
-27.1246
-27.1305
-27.135
-27.1388
-27.142
-27.1448
-27.1471
-27.1492
-27.151
-27.1525
-27.1537
-27.1548
-27.1558
-27.1566
-27.1573
-27.158
-27.1585
-27.1589
-27.1593
-27.1596
-27.1599
-27.1602
-27.1604
-27.1606
-27.1608
-27.1609
-27.161
-27.1611
-27.1611
-27.1611
-27.1609
-27.1608
-27.1605
-27.1605
-27.1603
-30.9488
-30.9646
-30.9896
-31.0085
-30.9868
-30.8606
-30.529
-29.8981
-29.0386
-28.3149
-27.7885
-27.3967
-27.1542
-27.0162
-26.9314
-26.8942
-26.8847
-26.886
-26.9028
-26.9301
-26.9582
-26.9818
-27.0037
-27.0232
-27.0394
-27.0541
-27.067
-27.0779
-27.0877
-27.0963
-27.1031
-27.1082
-27.1124
-27.1161
-27.1192
-27.1219
-27.1243
-27.1263
-27.128
-27.1294
-27.1306
-27.1317
-27.1327
-27.1335
-27.1342
-27.1347
-27.1352
-27.1357
-27.136
-27.1364
-27.1366
-27.1369
-27.1371
-27.1373
-27.1375
-27.1376
-27.1377
-27.1377
-27.1377
-27.1375
-27.1374
-27.137
-27.1369
-27.1367
-31.022
-31.0466
-31.0905
-31.1398
-31.1598
-31.0773
-30.7587
-30.0465
-28.9946
-28.1814
-27.6346
-27.2228
-26.9927
-26.8785
-26.807
-26.7876
-26.7945
-26.8041
-26.8314
-26.8701
-26.9069
-26.9354
-26.9616
-26.9849
-27.0034
-27.0204
-27.0354
-27.0475
-27.0587
-27.0686
-27.0763
-27.0818
-27.0865
-27.0906
-27.094
-27.097
-27.0997
-27.1019
-27.1038
-27.1054
-27.1067
-27.1079
-27.109
-27.1099
-27.1106
-27.1113
-27.1118
-27.1123
-27.1127
-27.113
-27.1133
-27.1136
-27.1138
-27.114
-27.1142
-27.1144
-27.1145
-27.1146
-27.1146
-27.1143
-27.1141
-27.1136
-27.1135
-27.1134
-31.0885
-31.1221
-31.1862
-31.2691
-31.3392
-31.3168
-31.0321
-30.2346
-28.9195
-28.0166
-27.4681
-27.0309
-26.8217
-26.7403
-26.6802
-26.6813
-26.707
-26.7227
-26.7607
-26.8121
-26.8582
-26.8904
-26.9211
-26.9482
-26.9685
-26.9877
-27.0048
-27.0179
-27.0304
-27.0417
-27.0503
-27.0558
-27.061
-27.0656
-27.0692
-27.0726
-27.0755
-27.0779
-27.08
-27.0817
-27.0831
-27.0844
-27.0856
-27.0866
-27.0874
-27.0881
-27.0887
-27.0891
-27.0896
-27.09
-27.0903
-27.0906
-27.0908
-27.0911
-27.0913
-27.0915
-27.0916
-27.0917
-27.0917
-27.0914
-27.0911
-27.0906
-27.0904
-27.0904
-31.1476
-31.1903
-31.2751
-31.3943
-31.5224
-31.5788
-31.3578
-30.4791
-28.7958
-27.8138
-27.2942
-26.818
-26.6413
-26.6046
-26.5505
-26.5759
-26.6239
-26.6413
-26.6908
-26.7567
-26.8127
-26.8471
-26.8821
-26.9133
-26.9346
-26.9561
-26.9753
-26.989
-27.0028
-27.0157
-27.0252
-27.0305
-27.036
-27.0411
-27.0448
-27.0485
-27.0519
-27.0543
-27.0566
-27.0585
-27.0599
-27.0613
-27.0626
-27.0637
-27.0645
-27.0653
-27.0659
-27.0664
-27.0669
-27.0673
-27.0676
-27.0679
-27.0682
-27.0685
-27.0687
-27.0689
-27.0691
-27.0693
-27.0693
-27.0689
-27.0684
-27.0679
-27.0676
-27.0678
-31.199
-31.2504
-31.3559
-31.5129
-31.7057
-31.8612
-31.7449
-30.8049
-28.5968
-27.5664
-27.1222
-26.5795
-26.4522
-26.4763
-26.4169
-26.4719
-26.5473
-26.5592
-26.6216
-26.7044
-26.7711
-26.805
-26.8447
-26.8805
-26.9016
-26.9257
-26.9472
-26.9609
-26.9761
-26.9907
-27.0011
-27.0057
-27.0117
-27.0174
-27.021
-27.0251
-27.0288
-27.0312
-27.0337
-27.0359
-27.0372
-27.0387
-27.0401
-27.0413
-27.0422
-27.0429
-27.0436
-27.0442
-27.0446
-27.0451
-27.0454
-27.0458
-27.0461
-27.0463
-27.0466
-27.0468
-27.047
-27.0472
-27.0473
-27.0469
-27.0462
-27.0456
-27.0454
-27.0457
-31.2425
-31.3022
-31.4276
-31.6225
-31.885
-32.1601
-32.2017
-31.2492
-28.283
-27.2677
-26.9673
-26.3073
-26.255
-26.3617
-26.2766
-26.3698
-26.4803
-26.475
-26.5527
-26.6555
-26.7344
-26.7637
-26.809
-26.8503
-26.8693
-26.8964
-26.9208
-26.9333
-26.9502
-26.9667
-26.9783
-26.9814
-26.988
-26.9945
-26.9978
-27.0023
-27.0065
-27.0088
-27.0115
-27.0139
-27.0151
-27.0167
-27.0183
-27.0196
-27.0204
-27.0212
-27.0219
-27.0225
-27.023
-27.0234
-27.0238
-27.0242
-27.0245
-27.0248
-27.025
-27.0253
-27.0256
-27.0258
-27.026
-27.0255
-27.0244
-27.024
-27.0237
-27.0242
-31.2782
-31.3455
-31.4893
-31.7209
-32.0554
-32.4685
-32.7344
-31.8669
-27.7959
-26.913
-26.8528
-25.9884
-26.0506
-26.2701
-26.1249
-26.2702
-26.4269
-26.3862
-26.4841
-26.6107
-26.7036
-26.7223
-26.7748
-26.8232
-26.8373
-26.8683
-26.8964
-26.9063
-26.925
-26.944
-26.957
-26.9576
-26.965
-26.9726
-26.9752
-26.9803
-26.985
-26.9869
-26.99
-26.9926
-26.9936
-26.9953
-26.9971
-26.9984
-26.9992
-27.0001
-27.0009
-27.0014
-27.002
-27.0024
-27.0028
-27.0032
-27.0035
-27.0038
-27.0041
-27.0044
-27.0047
-27.005
-27.0052
-27.0048
-27.0032
-27.0029
-27.0027
-27.0031
-31.3061
-31.3802
-31.5403
-31.8058
-32.2113
-32.7768
-33.3438
-32.7382
-27.0506
-26.5009
-26.8132
-25.6018
-25.8408
-26.214
-25.9541
-26.1735
-26.3928
-26.2886
-26.4156
-26.5705
-26.6804
-26.6794
-26.7422
-26.7999
-26.8049
-26.8413
-26.8742
-26.8793
-26.9007
-26.9225
-26.9373
-26.9338
-26.9427
-26.9517
-26.9529
-26.9589
-26.9643
-26.9656
-26.969
-26.9721
-26.9726
-26.9745
-26.9765
-26.978
-26.9786
-26.9796
-26.9804
-26.9809
-26.9815
-26.982
-26.9824
-26.9828
-26.9831
-26.9834
-26.9837
-26.984
-26.9844
-26.9847
-26.985
-26.9847
-26.9824
-26.9824
-26.9822
-26.9826
-31.3266
-31.4065
-31.5803
-31.8758
-32.3475
-33.0717
-34.0215
-33.9785
-25.9259
-26.0367
-26.8966
-25.1154
-25.6289
-26.2105
-25.7518
-26.0805
-26.3855
-26.1764
-26.3473
-26.5351
-26.6666
-26.6328
-26.7109
-26.7815
-26.7709
-26.8153
-26.8548
-26.8517
-26.8769
-26.902
-26.9196
-26.9096
-26.9209
-26.932
-26.9308
-26.938
-26.9444
-26.9445
-26.9487
-26.9522
-26.952
-26.9542
-26.9564
-26.958
-26.9585
-26.9595
-26.9604
-26.9609
-26.9615
-26.962
-26.9624
-26.9628
-26.9632
-26.9635
-26.9638
-26.9642
-26.9645
-26.9649
-26.9653
-26.9653
-26.9619
-26.9623
-26.9623
-26.9623
-31.34
-31.4247
-31.6093
-31.9295
-32.4591
-33.3373
-34.7435
-35.7515
-24.2519
-25.5366
-27.1692
-24.4816
-25.4204
-26.2829
-25.5002
-25.9927
-26.4157
-26.0407
-26.2801
-26.5049
-26.6649
-26.5795
-26.681
-26.7692
-26.7338
-26.7903
-26.8388
-26.8227
-26.8536
-26.8824
-26.904
-26.8844
-26.8996
-26.9134
-26.9086
-26.9175
-26.9253
-26.9236
-26.9286
-26.9329
-26.9315
-26.9342
-26.9366
-26.9385
-26.9386
-26.9398
-26.9408
-26.9412
-26.9418
-26.9424
-26.9428
-26.9432
-26.9435
-26.9439
-26.9442
-26.9446
-26.945
-26.9453
-26.946
-26.9465
-26.9416
-26.9424
-26.9427
-26.9424
-31.3469
-31.4352
-31.6278
-31.9666
-32.5421
-33.556
-35.4621
-38.2852
-21.7937
-25.0335
-27.7188
-23.6319
-25.2254
-26.4618
-25.1735
-25.9128
-26.4976
-25.8691
-26.2162
-26.4798
-26.6793
-26.5155
-26.6527
-26.7652
-26.6917
-26.7664
-26.8274
-26.7912
-26.8309
-26.8637
-26.8914
-26.8574
-26.8787
-26.8964
-26.8858
-26.8975
-26.9071
-26.9026
-26.909
-26.9143
-26.9111
-26.9146
-26.9173
-26.9194
-26.919
-26.9204
-26.9215
-26.9218
-26.9225
-26.9231
-26.9235
-26.9239
-26.9242
-26.9246
-26.9249
-26.9253
-26.9258
-26.9261
-26.9269
-26.9283
-26.9213
-26.9227
-26.9234
-26.9229
-31.3477
-31.4388
-31.6366
-31.9876
-32.5945
-33.7107
-36.0951
-41.8925
-18.2332
-24.5848
-28.6596
-22.471
-25.0603
-26.7878
-24.7368
-25.8457
-26.6502
-25.6452
-26.1601
-26.4598
-26.7153
-26.4358
-26.6271
-26.7727
-26.6423
-26.7443
-26.8223
-26.7565
-26.8095
-26.846
-26.8831
-26.8281
-26.8589
-26.8818
-26.8626
-26.8785
-26.8906
-26.8818
-26.8903
-26.8971
-26.8912
-26.8958
-26.8988
-26.9012
-26.9001
-26.9019
-26.9031
-26.9032
-26.904
-26.9046
-26.905
-26.9054
-26.9058
-26.9061
-26.9064
-26.9069
-26.9074
-26.9077
-26.9086
-26.9113
-26.9014
-26.9038
-26.905
-26.9044
-31.3434
-31.4359
-31.6363
-31.9933
-32.6159
-33.7874
-36.5114
-46.994
-13.1452
-24.2815
-30.1349
-20.8686
-24.9501
-27.3113
-24.1418
-25.7983
-26.8975
-25.3457
-26.1182
-26.443
-26.7795
-26.333
-26.6051
-26.7953
-26.5818
-26.7243
-26.8254
-26.7165
-26.7899
-26.8289
-26.8802
-26.7952
-26.8403
-26.8701
-26.8384
-26.8604
-26.8758
-26.8608
-26.8723
-26.8811
-26.8715
-26.8779
-26.881
-26.884
-26.8818
-26.884
-26.8855
-26.8852
-26.8862
-26.8868
-26.8872
-26.8876
-26.888
-26.8883
-26.8886
-26.8891
-26.8897
-26.8899
-26.8909
-26.8956
-26.8817
-26.8856
-26.8873
-26.8869
)
;

boundaryField
{
    left
    {
        type            calculated;
        value           nonuniform List<scalar> 
32
(
-29.6072
-29.6198
-29.6439
-29.6783
-29.7223
-29.7749
-29.8354
-29.9032
-29.9776
-30.0577
-30.1426
-30.2315
-30.3233
-30.4168
-30.511
-30.6045
-30.6962
-30.7849
-30.8694
-30.9488
-31.022
-31.0885
-31.1476
-31.199
-31.2425
-31.2782
-31.3061
-31.3266
-31.34
-31.3469
-31.3477
-31.3434
)
;
    }
    right
    {
        type            calculated;
        value           nonuniform List<scalar> 
32
(
-27.501
-27.4971
-27.4895
-27.479
-27.4657
-27.4502
-27.4328
-27.4137
-27.3933
-27.3719
-27.3496
-27.3267
-27.3033
-27.2796
-27.2558
-27.2318
-27.2079
-27.1841
-27.1603
-27.1367
-27.1134
-27.0904
-27.0678
-27.0457
-27.0242
-27.0031
-26.9826
-26.9623
-26.9424
-26.9229
-26.9044
-26.8869
)
;
    }
    interface
    {
        type            calculated;
        value           nonuniform List<scalar> 
64
(
-31.3401
-31.4328
-31.634
-31.9923
-32.6188
-33.8048
-36.6455
-49.9785
-10.1587
-24.1799
-31.026
-19.9382
-24.9124
-27.6294
-23.7978
-25.7805
-27.0481
-25.1736
-26.1017
-26.435
-26.8196
-26.2747
-26.5949
-26.8107
-26.5482
-26.7148
-26.8291
-26.6948
-26.7805
-26.8204
-26.8801
-26.7775
-26.8312
-26.8649
-26.8258
-26.8514
-26.8688
-26.85
-26.8634
-26.8734
-26.8615
-26.8689
-26.8721
-26.8754
-26.8726
-26.8752
-26.8767
-26.8763
-26.8773
-26.8779
-26.8783
-26.8788
-26.8791
-26.8794
-26.8798
-26.8802
-26.8808
-26.881
-26.882
-26.8879
-26.8717
-26.8766
-26.8785
-26.8781
)
;
    }
    bottom
    {
        type            calculated;
        value           nonuniform List<scalar> 
64
(
-29.6039
-29.5853
-29.5485
-29.4942
-29.4237
-29.3386
-29.2408
-29.1327
-29.0171
-28.8968
-28.7746
-28.6531
-28.5348
-28.4215
-28.3149
-28.2159
-28.1252
-28.0432
-27.9696
-27.9043
-27.8469
-27.7966
-27.7529
-27.7152
-27.6827
-27.6549
-27.6312
-27.6109
-27.5938
-27.5792
-27.5669
-27.5566
-27.5478
-27.5404
-27.5342
-27.529
-27.5247
-27.521
-27.5179
-27.5153
-27.5132
-27.5114
-27.5099
-27.5086
-27.5076
-27.5067
-27.506
-27.5053
-27.5048
-27.5044
-27.504
-27.5037
-27.5034
-27.5032
-27.503
-27.5028
-27.5027
-27.5025
-27.5024
-27.5023
-27.5022
-27.5021
-27.5021
-27.5021
)
;
    }
    defaultFaces
    {
        type            empty;
    }
}


// ************************************************************************* //
