/*--------------------------------*- C++ -*----------------------------------*\
| =========                 |                                                 |
| \\      /  F ield         | OpenFOAM: The Open Source CFD Toolbox           |
|  \\    /   O peration     | Version:  5.x                                   |
|   \\  /    A nd           | Web:      www.OpenFOAM.org                      |
|    \\/     M anipulation  |                                                 |
\*---------------------------------------------------------------------------*/
FoamFile
{
    version     2.0;
    format      ascii;
    class       volScalarField;
    location    "0.5";
    object      T;
}
// * * * * * * * * * * * * * * * * * * * * * * * * * * * * * * * * * * * * * //

dimensions      [0 0 0 1 0 0 0];

internalField   nonuniform List<scalar> 
2048
(
9.78732
9.78745
9.78772
9.78811
9.78861
9.78922
9.78993
9.7907
9.79153
9.7924
9.79328
9.79415
9.795
9.79581
9.79658
9.79729
9.79794
9.79853
9.79906
9.79953
9.79994
9.8003
9.80062
9.80089
9.80112
9.80132
9.80149
9.80164
9.80176
9.80186
9.80195
9.80203
9.80209
9.80214
9.80219
9.80222
9.80226
9.80228
9.8023
9.80232
9.80234
9.80235
9.80236
9.80237
9.80238
9.80238
9.80239
9.80239
9.8024
9.8024
9.8024
9.80241
9.80241
9.80241
9.80241
9.80241
9.80241
9.80241
9.80242
9.80242
9.80242
9.80242
9.80242
9.80242
9.37116
9.37156
9.37235
9.37351
9.37501
9.37683
9.37893
9.38124
9.38371
9.38628
9.38889
9.39149
9.39401
9.39643
9.3987
9.40081
9.40274
9.40448
9.40604
9.40742
9.40864
9.40971
9.41063
9.41143
9.41211
9.4127
9.4132
9.41363
9.41399
9.4143
9.41456
9.41478
9.41496
9.41512
9.41525
9.41536
9.41545
9.41553
9.41559
9.41564
9.41569
9.41573
9.41576
9.41579
9.41581
9.41583
9.41584
9.41585
9.41587
9.41587
9.41588
9.41589
9.41589
9.4159
9.4159
9.41591
9.41591
9.41591
9.41592
9.41592
9.41592
9.41592
9.41592
9.41592
8.97296
8.97361
8.97491
8.97683
8.97932
8.98233
8.98579
8.98961
8.9937
8.99796
9.00227
9.00655
9.01071
9.01469
9.01842
9.02187
9.02502
9.02787
9.03041
9.03267
9.03464
9.03637
9.03787
9.03916
9.04027
9.04122
9.04203
9.04272
9.0433
9.04379
9.04421
9.04456
9.04486
9.04511
9.04532
9.0455
9.04565
9.04577
9.04587
9.04596
9.04603
9.0461
9.04615
9.04619
9.04622
9.04625
9.04628
9.0463
9.04632
9.04633
9.04634
9.04635
9.04636
9.04637
9.04638
9.04639
9.04639
9.0464
9.0464
9.0464
9.04641
9.04641
9.04641
9.04641
8.59179
8.5927
8.5945
8.59717
8.60064
8.60484
8.60967
8.61501
8.62072
8.62666
8.63267
8.63863
8.6444
8.6499
8.65506
8.65981
8.66414
8.66804
8.67152
8.67459
8.67729
8.67963
8.68166
8.68341
8.68491
8.68619
8.68728
8.68821
8.689
8.68966
8.69022
8.6907
8.6911
8.69143
8.69171
8.69195
8.69215
8.69232
8.69246
8.69257
8.69267
8.69275
8.69282
8.69288
8.69293
8.69297
8.693
8.69303
8.69305
8.69307
8.69309
8.6931
8.69311
8.69312
8.69313
8.69314
8.69315
8.69316
8.69316
8.69317
8.69317
8.69317
8.69318
8.69318
8.2268
8.22797
8.23028
8.23371
8.23817
8.24357
8.24979
8.25667
8.26402
8.27166
8.27938
8.28702
8.2944
8.30141
8.30796
8.31398
8.31945
8.32436
8.32872
8.33256
8.33592
8.33883
8.34135
8.34352
8.34537
8.34696
8.3483
8.34944
8.35041
8.35123
8.35192
8.3525
8.35299
8.3534
8.35375
8.35404
8.35428
8.35449
8.35466
8.3548
8.35492
8.35502
8.3551
8.35517
8.35523
8.35528
8.35532
8.35535
8.35538
8.35541
8.35543
8.35544
8.35546
8.35547
8.35548
8.35549
8.3555
8.35551
8.35552
8.35552
8.35553
8.35553
8.35554
8.35554
7.87721
7.87864
7.88146
7.88564
7.89111
7.89774
7.90538
7.91383
7.92288
7.93226
7.94173
7.95106
7.96006
7.96858
7.97649
7.98375
7.9903
7.99617
8.00136
8.00592
8.00989
8.01333
8.01629
8.01884
8.02101
8.02286
8.02443
8.02576
8.02689
8.02784
8.02864
8.02931
8.02988
8.03036
8.03076
8.0311
8.03138
8.03162
8.03182
8.03198
8.03212
8.03224
8.03233
8.03241
8.03248
8.03254
8.03258
8.03262
8.03265
8.03268
8.03271
8.03273
8.03274
8.03276
8.03277
8.03278
8.03279
8.0328
8.03281
8.03282
8.03283
8.03283
8.03284
8.03284
7.54227
7.54395
7.54729
7.55224
7.55873
7.56662
7.57572
7.58582
7.59661
7.60779
7.61906
7.63012
7.64075
7.65076
7.66003
7.66848
7.67608
7.68285
7.68882
7.69404
7.69857
7.70249
7.70585
7.70872
7.71118
7.71326
7.71503
7.71652
7.71778
7.71885
7.71975
7.7205
7.72114
7.72167
7.72212
7.7225
7.72281
7.72307
7.7233
7.72348
7.72363
7.72376
7.72387
7.72396
7.72403
7.7241
7.72415
7.72419
7.72423
7.72426
7.72429
7.72431
7.72433
7.72434
7.72436
7.72437
7.72439
7.7244
7.72441
7.72441
7.72442
7.72443
7.72443
7.72443
7.22129
7.22323
7.22708
7.23281
7.24034
7.24952
7.26015
7.27194
7.28456
7.29762
7.31074
7.32359
7.33587
7.34737
7.35797
7.36758
7.37618
7.3838
7.39049
7.39632
7.40136
7.40569
7.4094
7.41257
7.41526
7.41755
7.41948
7.42111
7.42249
7.42365
7.42463
7.42545
7.42614
7.42672
7.42721
7.42761
7.42796
7.42824
7.42848
7.42868
7.42885
7.42899
7.4291
7.4292
7.42928
7.42935
7.4294
7.42945
7.42949
7.42952
7.42955
7.42958
7.4296
7.42962
7.42963
7.42965
7.42966
7.42967
7.42968
7.42969
7.4297
7.42971
7.42971
7.42971
6.91361
6.9158
6.92017
6.92668
6.93527
6.94578
6.95799
6.97157
6.98611
7.00114
7.01619
7.03087
7.04482
7.05782
7.06972
7.08046
7.09001
7.09843
7.10578
7.11215
7.11764
7.12234
7.12635
7.12977
7.13267
7.13512
7.13719
7.13893
7.1404
7.14164
7.14268
7.14356
7.14429
7.14491
7.14543
7.14586
7.14622
7.14653
7.14678
7.14699
7.14717
7.14732
7.14744
7.14754
7.14763
7.1477
7.14776
7.14781
7.14785
7.14788
7.14791
7.14794
7.14796
7.14798
7.148
7.14801
7.14803
7.14804
7.14806
7.14807
7.14807
7.14808
7.14809
7.14809
6.61862
6.62107
6.62594
6.63323
6.64289
6.65477
6.66863
6.6841
6.70066
6.71776
6.73484
6.7514
6.76706
6.78155
6.79474
6.80655
6.817
6.82615
6.8341
6.84096
6.84684
6.85186
6.85613
6.85975
6.86281
6.86539
6.86757
6.86941
6.87095
6.87225
6.87334
6.87426
6.87502
6.87567
6.87621
6.87666
6.87704
6.87736
6.87762
6.87784
6.87803
6.87818
6.87831
6.87842
6.8785
6.87858
6.87864
6.87869
6.87873
6.87877
6.8788
6.87883
6.87885
6.87887
6.87889
6.87891
6.87892
6.87894
6.87895
6.87896
6.87897
6.87898
6.87899
6.87899
6.33576
6.33844
6.34381
6.35187
6.36261
6.3759
6.39148
6.40893
6.42764
6.44694
6.46613
6.48465
6.50204
6.51802
6.53246
6.5453
6.55659
6.56642
6.5749
6.58218
6.58839
6.59368
6.59815
6.60194
6.60513
6.60782
6.61008
6.61198
6.61358
6.61492
6.61605
6.61699
6.61778
6.61845
6.619
6.61947
6.61986
6.62019
6.62046
6.62069
6.62087
6.62103
6.62116
6.62127
6.62136
6.62144
6.6215
6.62155
6.6216
6.62163
6.62166
6.62169
6.62171
6.62174
6.62176
6.62177
6.62179
6.6218
6.62182
6.62183
6.62184
6.62185
6.62186
6.62186
6.06449
6.0674
6.07323
6.08204
6.09385
6.10857
6.12595
6.1455
6.16651
6.18814
6.20957
6.2301
6.24925
6.26671
6.28236
6.29618
6.30824
6.31868
6.32763
6.33527
6.34176
6.34725
6.35189
6.3558
6.35909
6.36185
6.36417
6.36612
6.36775
6.36912
6.37027
6.37123
6.37204
6.37271
6.37328
6.37375
6.37415
6.37448
6.37476
6.37499
6.37518
6.37534
6.37547
6.37558
6.37568
6.37575
6.37581
6.37587
6.37591
6.37595
6.37598
6.37601
6.37603
6.37605
6.37607
6.37609
6.37611
6.37612
6.37614
6.37615
6.37616
6.37617
6.37618
6.37618
5.8043
5.80741
5.81368
5.82321
5.83607
5.85225
5.8715
5.89328
5.91676
5.94088
5.96465
5.98728
6.0082
6.02712
6.04394
6.05867
6.07144
6.08241
6.09177
6.0997
6.10641
6.11206
6.11682
6.12081
6.12416
6.12697
6.12933
6.1313
6.13295
6.13433
6.13549
6.13646
6.13728
6.13796
6.13853
6.13901
6.13941
6.13974
6.14002
6.14025
6.14044
6.1406
6.14074
6.14085
6.14094
6.14101
6.14108
6.14113
6.14117
6.14121
6.14124
6.14127
6.14129
6.14131
6.14133
6.14135
6.14137
6.14139
6.1414
6.14142
6.14143
6.14144
6.14144
6.14144
5.55473
5.55802
5.56468
5.57487
5.58875
5.60638
5.62758
5.65175
5.67788
5.70467
5.73092
5.7557
5.77842
5.79877
5.8167
5.83228
5.84568
5.85711
5.8668
5.87497
5.88183
5.88759
5.89242
5.89647
5.89985
5.90268
5.90505
5.90703
5.90868
5.91007
5.91123
5.9122
5.91301
5.9137
5.91427
5.91474
5.91514
5.91547
5.91575
5.91598
5.91617
5.91633
5.91646
5.91657
5.91666
5.91674
5.9168
5.91685
5.9169
5.91693
5.91696
5.91699
5.91701
5.91703
5.91705
5.91707
5.91709
5.91711
5.91712
5.91714
5.91715
5.91716
5.91717
5.91717
5.31533
5.31877
5.32576
5.33655
5.35139
5.37047
5.39368
5.42041
5.44941
5.47907
5.50793
5.53494
5.55945
5.58119
5.60016
5.61651
5.63047
5.64228
5.65223
5.66057
5.66754
5.67336
5.67823
5.68229
5.68568
5.68851
5.69087
5.69284
5.69448
5.69586
5.69701
5.69797
5.69878
5.69945
5.70002
5.70049
5.70089
5.70122
5.70149
5.70172
5.70191
5.70206
5.70219
5.7023
5.70239
5.70246
5.70252
5.70257
5.70262
5.70265
5.70268
5.70271
5.70273
5.70275
5.70277
5.70279
5.70281
5.70283
5.70284
5.70286
5.70287
5.70288
5.70289
5.70289
5.0857
5.08924
5.09651
5.1078
5.12352
5.14401
5.1693
5.19876
5.2309
5.26366
5.29528
5.32456
5.35085
5.37393
5.39388
5.41091
5.42533
5.43746
5.4476
5.45604
5.46306
5.4689
5.47376
5.47781
5.48118
5.48398
5.48632
5.48827
5.48989
5.49124
5.49238
5.49333
5.49412
5.49479
5.49535
5.49581
5.4962
5.49652
5.49679
5.49701
5.4972
5.49735
5.49748
5.49758
5.49767
5.49774
5.4978
5.49785
5.49789
5.49792
5.49795
5.49798
5.498
5.49802
5.49804
5.49806
5.49808
5.49809
5.49811
5.49813
5.49814
5.49815
5.49816
5.49816
4.86544
4.86905
4.87651
4.88819
4.90469
4.92653
4.95395
4.98635
5.02193
5.05804
5.09255
5.12417
5.15222
5.17656
5.19739
5.21502
5.22982
5.24218
5.25244
5.26093
5.26794
5.27376
5.27858
5.28258
5.28591
5.28867
5.29097
5.29288
5.29447
5.2958
5.29691
5.29784
5.29861
5.29927
5.29981
5.30027
5.30065
5.30096
5.30122
5.30144
5.30162
5.30177
5.30189
5.30199
5.30208
5.30215
5.3022
5.30225
5.30229
5.30232
5.30235
5.30237
5.30239
5.30241
5.30243
5.30245
5.30247
5.30249
5.30251
5.30252
5.30254
5.30255
5.30256
5.30255
4.65419
4.65783
4.66538
4.67734
4.69447
4.71755
4.74713
4.7827
4.82211
4.86186
4.89939
4.93338
4.96314
4.98865
5.01027
5.0284
5.04349
5.05601
5.06633
5.07479
5.08175
5.0875
5.09225
5.09619
5.09945
5.10216
5.1044
5.10627
5.10781
5.1091
5.11018
5.11109
5.11185
5.11248
5.11301
5.11345
5.11382
5.11413
5.11438
5.11459
5.11477
5.11491
5.11503
5.11513
5.11521
5.11527
5.11533
5.11537
5.11541
5.11544
5.11547
5.11549
5.11551
5.11553
5.11555
5.11556
5.11558
5.1156
5.11562
5.11564
5.11565
5.11566
5.11567
5.11567
4.45161
4.45522
4.46278
4.47487
4.49246
4.51664
4.54836
4.58738
4.63108
4.67477
4.71544
4.75182
4.78323
4.8098
4.8321
4.85062
4.86592
4.87852
4.88883
4.89721
4.90407
4.90972
4.91437
4.91822
4.9214
4.92404
4.92622
4.92802
4.92952
4.93077
4.93181
4.93269
4.93342
4.93404
4.93455
4.93498
4.93534
4.93563
4.93588
4.93608
4.93625
4.93638
4.9365
4.93659
4.93667
4.93673
4.93678
4.93682
4.93686
4.93689
4.93691
4.93693
4.93695
4.93697
4.93699
4.937
4.93702
4.93704
4.93706
4.93708
4.93709
4.93711
4.93711
4.93711
4.25737
4.26091
4.26837
4.28043
4.29827
4.32336
4.35718
4.39992
4.4485
4.49646
4.54036
4.57914
4.6121
4.63961
4.66248
4.68129
4.69669
4.70932
4.71955
4.7278
4.73451
4.74002
4.74455
4.74829
4.75137
4.75392
4.75603
4.75777
4.75921
4.76041
4.76141
4.76226
4.76297
4.76356
4.76406
4.76447
4.76481
4.7651
4.76533
4.76552
4.76569
4.76582
4.76592
4.76601
4.76608
4.76614
4.76619
4.76623
4.76626
4.76629
4.76631
4.76633
4.76635
4.76637
4.76639
4.7664
4.76642
4.76644
4.76646
4.76648
4.76649
4.76651
4.76651
4.76652
4.07117
4.07459
4.08184
4.0937
4.11156
4.1373
4.1731
4.21986
4.2741
4.32668
4.37382
4.41501
4.4494
4.47768
4.50102
4.52
4.53541
4.54801
4.5581
4.56616
4.57267
4.57803
4.58241
4.58602
4.589
4.59146
4.59348
4.59515
4.59653
4.59767
4.59863
4.59944
4.60013
4.6007
4.60117
4.60157
4.6019
4.60217
4.60239
4.60258
4.60273
4.60285
4.60295
4.60304
4.6031
4.60316
4.60321
4.60324
4.60327
4.6033
4.60332
4.60334
4.60335
4.60337
4.60339
4.6034
4.60342
4.60344
4.60345
4.60348
4.60349
4.60351
4.60352
4.60352
3.89271
3.89596
3.9029
3.91439
3.932
3.95807
3.99564
4.04673
4.10765
4.16516
4.21549
4.25911
4.29477
4.32362
4.34734
4.36638
4.3817
4.39422
4.40413
4.41192
4.4182
4.42338
4.4276
4.43106
4.43394
4.43629
4.43822
4.43982
4.44113
4.44221
4.44312
4.4439
4.44456
4.4451
4.44556
4.44593
4.44624
4.4465
4.44671
4.44689
4.44703
4.44715
4.44725
4.44732
4.44739
4.44744
4.44748
4.44752
4.44754
4.44757
4.44759
4.4476
4.44762
4.44763
4.44765
4.44766
4.44768
4.44769
4.44771
4.44774
4.44775
4.44778
4.44778
4.44779
3.72171
3.72475
3.73128
3.74221
3.75929
3.7853
3.8243
3.88001
3.949
4.01171
4.06503
4.11113
4.14787
4.17707
4.20109
4.22006
4.23518
4.2476
4.25727
4.26475
4.27075
4.27574
4.27978
4.28308
4.28584
4.28808
4.28991
4.29144
4.29267
4.29369
4.29455
4.2953
4.29593
4.29645
4.29688
4.29724
4.29753
4.29778
4.29798
4.29814
4.29828
4.29839
4.29848
4.29855
4.29861
4.29865
4.29869
4.29873
4.29875
4.29877
4.29879
4.2988
4.29882
4.29883
4.29884
4.29886
4.29887
4.29889
4.29891
4.29893
4.29895
4.29898
4.29899
4.29899
3.55789
3.56069
3.56672
3.57693
3.59317
3.61865
3.6586
3.71913
3.79809
3.86615
3.92207
3.9708
4.00837
4.03762
4.06192
4.08068
4.0955
4.10782
4.1172
4.12429
4.12997
4.13478
4.13863
4.14175
4.1444
4.14652
4.14824
4.14969
4.15085
4.1518
4.1526
4.15333
4.15393
4.15442
4.15483
4.15517
4.15544
4.15568
4.15586
4.15602
4.15615
4.15625
4.15633
4.1564
4.15645
4.1565
4.15653
4.15656
4.15658
4.1566
4.15662
4.15663
4.15664
4.15665
4.15667
4.15668
4.15669
4.15671
4.15673
4.15675
4.15678
4.1568
4.15682
4.15682
3.401
3.40352
3.40897
3.41829
3.4334
3.45781
3.49803
3.5634
3.65501
3.72832
3.78621
3.83788
3.87593
3.90489
3.92952
3.94793
3.96228
3.97458
3.98361
3.99024
3.99555
4.0002
4.00383
4.00676
4.0093
4.01129
4.0129
4.01429
4.01537
4.01623
4.01699
4.01769
4.01826
4.01872
4.01912
4.01943
4.01969
4.01991
4.02008
4.02022
4.02035
4.02044
4.02052
4.02058
4.02063
4.02067
4.0207
4.02072
4.02074
4.02076
4.02077
4.02079
4.0208
4.02081
4.02082
4.02083
4.02084
4.02086
4.02087
4.0209
4.02093
4.02096
4.02097
4.02097
3.25078
3.253
3.2578
3.26609
3.27976
3.30255
3.34211
3.41201
3.52003
3.59807
3.65697
3.71217
3.75026
3.77847
3.80361
3.82146
3.83519
3.84757
3.85619
3.86227
3.86717
3.87169
3.8751
3.87782
3.88027
3.88212
3.88361
3.88494
3.88593
3.88671
3.88741
3.8881
3.88864
3.88906
3.88945
3.88974
3.88997
3.89018
3.89034
3.89047
3.89059
3.89068
3.89074
3.8908
3.89084
3.89088
3.89091
3.89093
3.89095
3.89096
3.89097
3.89098
3.89099
3.891
3.89101
3.89102
3.89103
3.89105
3.89106
3.8911
3.89113
3.89116
3.89117
3.89117
3.10699
3.10888
3.11298
3.12013
3.13209
3.15264
3.19039
3.26393
3.39367
3.47529
3.53378
3.59355
3.63104
3.65794
3.68393
3.70098
3.71387
3.72654
3.73465
3.74009
3.74453
3.749
3.75214
3.75462
3.75703
3.75873
3.76007
3.76137
3.76227
3.76296
3.76359
3.76429
3.76479
3.76517
3.76555
3.76582
3.76603
3.76623
3.76637
3.76649
3.76661
3.76669
3.76674
3.76679
3.76683
3.76686
3.76689
3.76691
3.76692
3.76694
3.76695
3.76695
3.76696
3.76697
3.76698
3.76699
3.767
3.76701
3.76702
3.76706
3.7671
3.76713
3.76715
3.76714
2.96938
2.97093
2.97429
2.9802
2.99023
3.00795
3.04245
3.11783
3.27679
3.35982
3.41595
3.48199
3.51796
3.54284
3.57029
3.58618
3.59795
3.61125
3.61873
3.62343
3.62734
3.63187
3.63471
3.63691
3.63932
3.64085
3.64204
3.64332
3.64412
3.64471
3.64527
3.646
3.64645
3.64679
3.64717
3.64741
3.64759
3.64779
3.64792
3.64802
3.64813
3.6482
3.64825
3.64829
3.64833
3.64836
3.64838
3.6484
3.64841
3.64842
3.64843
3.64844
3.64844
3.64845
3.64846
3.64846
3.64847
3.64848
3.6485
3.64853
3.64858
3.64862
3.64863
3.64862
2.83772
2.83892
2.84152
2.84614
2.85405
2.86839
2.89801
2.97199
3.17069
3.25144
3.3026
3.37761
3.41072
3.43265
3.46255
3.47679
3.48706
3.50152
3.50817
3.512
3.51531
3.52007
3.52254
3.52441
3.52691
3.52823
3.52923
3.53055
3.53124
3.53171
3.53219
3.53298
3.53338
3.53367
3.53406
3.53426
3.53442
3.53462
3.53473
3.53482
3.53493
3.53499
3.53503
3.53506
3.5351
3.53512
3.53514
3.53516
3.53517
3.53517
3.53518
3.53519
3.53519
3.5352
3.5352
3.53521
3.53521
3.53522
3.53523
3.53527
3.53534
3.53537
3.53538
3.53537
2.71177
2.71262
2.71447
2.71775
2.72343
2.73395
2.75694
2.82415
3.07726
3.14986
3.19266
3.28069
3.30899
3.32681
3.36066
3.37252
3.38082
3.39719
3.40271
3.40556
3.40816
3.41339
3.41539
3.41687
3.41957
3.42063
3.42142
3.42284
3.42339
3.42374
3.42412
3.42501
3.42534
3.42557
3.42598
3.42615
3.42627
3.42648
3.42657
3.42664
3.42676
3.42681
3.42684
3.42686
3.4269
3.42692
3.42693
3.42695
3.42695
3.42696
3.42696
3.42697
3.42697
3.42697
3.42698
3.42698
3.42699
3.42699
3.427
3.42703
3.42713
3.42715
3.42716
3.42716
2.59132
2.59182
2.59292
2.59487
2.59827
2.60465
2.61933
2.67132
2.99912
3.05462
3.08478
3.19177
3.21242
3.22467
3.26465
3.2731
3.27879
3.29816
3.3021
3.30386
3.30561
3.31164
3.31304
3.31403
3.3171
3.31783
3.31836
3.31996
3.32034
3.32055
3.32082
3.32187
3.3221
3.32225
3.32272
3.32283
3.32292
3.32315
3.32321
3.32326
3.3234
3.32343
3.32345
3.32346
3.32351
3.32352
3.32353
3.32354
3.32354
3.32355
3.32355
3.32355
3.32356
3.32356
3.32356
3.32356
3.32356
3.32357
3.32358
3.3236
3.32372
3.32374
3.32375
3.32375
2.47614
2.47631
2.47667
2.47731
2.47844
2.48057
2.48567
2.50962
2.93985
2.96503
2.97733
3.11167
3.12061
3.12549
3.17468
3.17824
3.18052
3.2044
3.20607
3.20667
3.20736
3.21467
3.21525
3.21563
3.21931
3.21961
3.21981
3.22172
3.22187
3.22194
3.22205
3.22335
3.22345
3.22351
3.22406
3.22411
3.22414
3.22442
3.22444
3.22446
3.22463
3.22464
3.22465
3.22465
3.2247
3.22471
3.22471
3.22472
3.22473
3.22473
3.22473
3.22473
3.22473
3.22473
3.22473
3.22473
3.22473
3.22474
3.22474
3.22475
3.22492
3.22493
3.22493
3.22493
)
;

boundaryField
{
    left
    {
        type            zeroGradient;
    }
    right
    {
        type            zeroGradient;
    }
    interface
    {
        type            fixedValue;
        value           nonuniform List<scalar> 
64
(
2.41985
2.41985
2.41985
2.41985
2.41985
2.41985
2.41985
2.41985
2.92161
2.92161
2.92161
3.07586
3.07586
3.07586
3.13194
3.13194
3.13194
3.15919
3.15919
3.15919
3.15919
3.16748
3.16748
3.16748
3.17162
3.17162
3.17162
3.17377
3.17377
3.17377
3.17377
3.17526
3.17526
3.17526
3.17588
3.17588
3.17588
3.17619
3.17619
3.17619
3.17638
3.17638
3.17638
3.17638
3.17644
3.17644
3.17644
3.17645
3.17645
3.17645
3.17645
3.17645
3.17645
3.17645
3.17645
3.17645
3.17645
3.17646
3.17646
3.17646
3.17665
3.17665
3.17665
3.17665
)
;
    }
    bottom
    {
        type            fixedValue;
        value           uniform 10;
    }
    defaultFaces
    {
        type            empty;
    }
}


// ************************************************************************* //
