/*--------------------------------*- C++ -*----------------------------------*\
| =========                 |                                                 |
| \\      /  F ield         | OpenFOAM: The Open Source CFD Toolbox           |
|  \\    /   O peration     | Version:  5.x                                   |
|   \\  /    A nd           | Web:      www.OpenFOAM.org                      |
|    \\/     M anipulation  |                                                 |
\*---------------------------------------------------------------------------*/
FoamFile
{
    version     2.0;
    format      ascii;
    class       volScalarField;
    location    "5.6";
    object      gradTx;
}
// * * * * * * * * * * * * * * * * * * * * * * * * * * * * * * * * * * * * * //

dimensions      [0 -1 0 1 0 0 0];

internalField   nonuniform List<scalar> 
2048
(
0.0219473
0.0655949
0.108481
0.150028
0.189582
0.226417
0.259778
0.28894
0.313284
0.332365
0.345954
0.354059
0.356912
0.354929
0.34867
0.338781
0.325953
0.310877
0.294212
0.276561
0.258448
0.240317
0.22252
0.205327
0.18893
0.173457
0.158982
0.145531
0.133095
0.121639
0.111107
0.101429
0.092533
0.0843455
0.0767991
0.0698341
0.0633997
0.0574537
0.0519619
0.0468966
0.0422352
0.0379584
0.0340492
0.0304907
0.0272655
0.0243549
0.0217385
0.019394
0.0172981
0.0154262
0.0137531
0.0122538
0.0109031
0.00967717
0.00855317
0.00751036
0.00653027
0.00559704
0.00469755
0.00382136
0.00296048
0.00210914
0.0012634
0.000420778
0.0650862
0.194547
0.321804
0.445172
0.562704
0.672225
0.771447
0.85817
0.930507
0.987102
1.02727
1.05104
1.05913
1.0528
1.03376
1.00396
0.965465
0.920351
0.870587
0.817968
0.764059
0.710166
0.657331
0.606342
0.557763
0.511962
0.469146
0.429388
0.392656
0.358835
0.327755
0.299206
0.272967
0.248818
0.226558
0.20601
0.187023
0.169473
0.153261
0.138305
0.12454
0.111911
0.100369
0.089863
0.080344
0.0717564
0.0640396
0.0571282
0.0509524
0.0454392
0.0405142
0.0361023
0.0321293
0.0285238
0.0252182
0.0221506
0.0192663
0.0165183
0.0138678
0.0112841
0.00874386
0.00623033
0.00373221
0.00124295
0.106876
0.319525
0.528742
0.731822
0.925568
1.10633
1.27019
1.41339
1.53264
1.62563
1.69119
1.7294
1.74153
1.72978
1.69704
1.64662
1.58202
1.50669
1.42392
1.33668
1.24755
1.15867
1.07173
0.988
0.908367
0.833408
0.763434
0.698544
0.638664
0.583588
0.533016
0.486589
0.44393
0.404671
0.368475
0.335051
0.304154
0.275583
0.24918
0.224816
0.202388
0.181809
0.163003
0.145893
0.130397
0.116426
0.103882
0.0926556
0.0826333
0.0736946
0.0657165
0.0585754
0.052149
0.046319
0.0409739
0.0360116
0.0313419
0.0268878
0.022586
0.018387
0.0142535
0.0101592
0.0060864
0.00202683
0.147599
0.441414
0.730874
1.01239
1.28155
1.53312
1.76143
1.96088
2.12662
2.25521
2.34499
2.39615
2.41061
2.39167
2.34354
2.271
2.17903
2.07254
1.95614
1.83401
1.70972
1.58622
1.46579
1.35013
1.24041
1.13735
1.04134
0.952468
0.870594
0.7954
0.726435
0.663174
0.605068
0.551591
0.502271
0.456703
0.414554
0.375556
0.339495
0.306205
0.275552
0.247426
0.221726
0.198356
0.177206
0.158156
0.141069
0.125797
0.112179
0.100049
0.0892372
0.0795708
0.07088
0.0629999
0.0557751
0.0490635
0.0427397
0.0366977
0.0308512
0.025133
0.019494
0.0139006
0.00832967
0.00277376
0.187411
0.560726
0.929192
1.28851
1.63308
1.95598
2.24945
2.50574
2.71812
2.88182
2.99462
3.05694
3.07157
3.04307
2.9772
2.88036
2.75912
2.6199
2.46872
2.31096
2.15119
1.99313
1.83961
1.69268
1.55372
1.42355
1.30258
1.19086
1.08816
0.994013
0.907792
0.828779
0.756234
0.68946
0.627845
0.570875
0.518136
0.4693
0.424111
0.382369
0.34392
0.308638
0.276409
0.24712
0.22064
0.196819
0.175482
0.156441
0.139491
0.124418
0.111004
0.0990303
0.0882783
0.0785362
0.0696038
0.0612985
0.0534601
0.0459542
0.0386725
0.0315326
0.0244753
0.0174624
0.0104673
0.00348562
0.226351
0.677625
1.12413
1.5611
1.98177
2.37736
2.73764
3.05218
3.31191
3.51046
3.64503
3.71644
3.72857
3.68761
3.60108
3.47719
3.32424
3.15026
2.9627
2.76821
2.57238
2.37963
2.19328
2.01565
1.84824
1.69192
1.54705
1.41362
1.29127
1.17936
1.07705
0.983406
0.897456
0.818321
0.745244
0.67761
0.614934
0.556839
0.503034
0.453299
0.407468
0.365407
0.327002
0.292128
0.260638
0.232353
0.207063
0.184536
0.164521
0.14676
0.130985
0.116931
0.104331
0.0929238
0.0824641
0.0727275
0.0635185
0.054675
0.0460685
0.0376029
0.0292118
0.0208556
0.0125061
0.00416468
0.264341
0.791935
1.31558
1.83038
2.32848
2.79899
3.22866
3.60372
3.91208
4.14545
4.30042
4.37843
4.38493
4.32805
4.21744
4.06329
3.87577
3.6646
3.43876
3.20619
2.97351
2.74584
2.52687
2.31909
2.12402
1.94249
1.77479
1.62079
1.47998
1.35152
1.23434
1.1272
1.0289
0.938346
0.854634
0.777059
0.705079
0.638282
0.576355
0.519066
0.466243
0.417763
0.373515
0.333378
0.297191
0.264749
0.235802
0.210073
0.187265
0.167072
0.149182
0.133279
0.119049
0.10618
0.0943787
0.0833766
0.0729426
0.0628877
0.0530648
0.0433665
0.0337218
0.0240934
0.0144538
0.00481348
0.301189
0.903158
1.50295
2.09595
2.67339
3.22192
3.72463
4.16339
4.52229
4.7906
4.96436
5.04608
5.04324
4.96648
4.8279
4.63991
4.41463
4.16355
3.89725
3.62508
3.35468
3.09183
2.84047
2.60312
2.38121
2.17543
1.98595
1.81252
1.65446
1.51072
1.37989
1.26045
1.15086
1.04982
0.956277
0.869457
0.788778
0.713811
0.64423
0.579797
0.52035
0.465782
0.416007
0.370914
0.330336
0.294037
0.261727
0.233079
0.207749
0.185383
0.165621
0.148103
0.132463
0.11834
0.105385
0.0932842
0.0817702
0.0706276
0.0596927
0.0488498
0.0380261
0.0271906
0.0163191
0.00543475
0.336602
1.01048
1.68513
2.3568
3.01599
3.64664
4.22719
4.73392
5.14587
5.44935
5.63999
5.72192
5.70546
5.60434
5.43353
5.20782
4.94135
4.64741
4.33829
4.02486
3.71586
3.41761
3.13418
2.86791
2.62001
2.39097
2.18079
1.98908
1.815
1.65723
1.51406
1.3835
1.26371
1.1531
1.05051
0.955102
0.866295
0.783657
0.706861
0.63567
0.569935
0.509583
0.45457
0.404812
0.360138
0.32028
0.284898
0.253612
0.226026
0.201739
0.180348
0.161446
0.14462
0.129449
0.11553
0.102498
0.0900465
0.0779355
0.0659878
0.054082
0.0421469
0.0301627
0.0181108
0.00603116
0.370186
1.1128
1.86054
2.61129
3.35516
4.07305
4.73762
5.31782
5.78605
6.12494
6.33003
6.408
6.37295
6.24251
6.03487
5.76737
5.45614
5.11625
4.7618
4.40537
4.05691
3.72316
3.4081
3.11369
2.84075
2.58946
2.35965
2.15079
1.96191
1.79145
1.63725
1.49684
1.36791
1.24863
1.13772
1.03434
0.937931
0.84809
0.76449
0.686896
0.615177
0.54931
0.489322
0.435173
0.38669
0.343564
0.305398
0.27175
0.242168
0.216207
0.193422
0.173366
0.155573
0.139566
0.124872
0.111073
0.0978219
0.0848563
0.071988
0.0590938
0.0461075
0.0330252
0.0198373
0.00660517
0.401464
1.20876
2.02718
2.85719
3.68911
4.50053
5.25695
5.91761
6.44608
6.82047
7.03692
7.10589
7.04654
6.88132
6.63206
6.31863
5.95903
5.56999
5.16753
4.7663
4.3776
4.00846
3.6624
3.34079
3.04384
2.77134
2.52294
2.29805
2.0956
1.91379
1.74996
1.60098
1.46399
1.33689
1.21833
1.10753
1.00401
0.9074
0.81738
0.73371
0.656277
0.585128
0.520395
0.462111
0.410099
0.363996
0.323331
0.28759
0.256265
0.228866
0.204915
0.183925
0.165387
0.148752
0.133474
0.119069
0.105151
0.0914368
0.0777325
0.0639169
0.0499309
0.0357932
0.0215064
0.00715881
0.429888
1.29676
2.18261
3.09169
4.01538
4.92792
5.78594
6.53588
7.12934
7.53901
7.76276
7.81665
7.72648
7.52061
7.22484
6.86141
6.4499
6.00842
5.55511
5.10722
4.67766
4.27347
3.89733
3.54963
3.22979
2.93712
2.67115
2.43129
2.21647
2.02471
1.85273
1.69652
1.55252
1.4184
1.2928
1.17507
1.06487
0.96189
0.865812
0.776371
0.693456
0.617211
0.547928
0.48575
0.430487
0.381695
0.338813
0.301243
0.268417
0.239805
0.214902
0.193193
0.174126
0.157077
0.141404
0.126549
0.112089
0.0977248
0.0832607
0.0685824
0.0536398
0.0384804
0.0231242
0.00769344
0.454863
1.37505
2.32406
3.31142
4.33085
5.35348
6.32524
7.17549
7.83957
8.28363
8.5094
8.54089
8.41247
8.15976
7.81262
7.39532
6.92857
6.43134
5.92408
5.42756
4.95675
4.51822
4.11319
3.74073
3.3992
3.08739
2.80481
2.55096
2.32493
2.12466
1.94614
1.7841
1.63415
1.49372
1.36159
1.23732
1.12083
1.01187
0.910076
0.815149
0.726949
0.645738
0.572062
0.506217
0.447982
0.396792
0.351974
0.312832
0.278732
0.249118
0.223462
0.201238
0.181857
0.16461
0.148733
0.133579
0.118693
0.103767
0.0886105
0.0731207
0.0572557
0.0410989
0.0246953
0.00820954
0.475774
1.44177
2.44848
3.51247
4.63162
5.77482
6.87531
7.83979
8.58096
9.05741
9.27834
9.27869
9.10362
8.79766
8.39455
7.91987
7.39494
6.8386
6.27387
5.72663
5.21452
4.74281
4.3104
3.91474
3.55282
3.22283
2.92451
2.65755
2.42136
2.21411
2.0308
1.86444
1.70951
1.56341
1.42515
1.29466
1.17222
1.05764
0.950465
0.850332
0.757002
0.670888
0.592926
0.523637
0.462718
0.409427
0.362953
0.322486
0.287326
0.256902
0.230677
0.208124
0.188645
0.171425
0.155535
0.140224
0.125018
0.109609
0.0938179
0.0775612
0.0607994
0.0436585
0.0262212
0.00870639
0.492016
1.49504
2.55266
3.69045
4.91303
6.18877
7.4365
8.53279
9.3584
9.86343
10.0707
10.0296
9.7984
9.43279
8.96954
8.43448
7.84904
7.23023
6.60385
6.00355
5.45057
4.94743
4.48949
4.07241
3.69146
3.34417
3.03087
2.75151
2.50611
2.29345
2.10739
1.93831
1.7793
1.62802
1.48392
1.34742
1.21934
1.09949
0.98727
0.88222
0.783877
0.692831
0.610635
0.538132
0.474838
0.419746
0.371899
0.330346
0.294319
0.26326
0.236624
0.213914
0.19455
0.177597
0.161889
0.146551
0.131118
0.115294
0.0989154
0.0819318
0.0642908
0.0461661
0.0277002
0.00918171
0.503032
1.53309
2.63332
3.8406
5.16957
6.59124
8.00897
9.25949
10.1776
10.7046
10.8871
10.7926
10.4946
10.0632
9.53638
8.9385
8.29119
7.60653
6.91324
6.25717
5.66452
5.13241
4.65108
4.21466
3.81608
3.45217
3.12456
2.83335
2.5794
2.36304
2.17663
2.00658
1.84421
1.68812
1.53833
1.39588
1.26246
1.1377
1.02077
0.911128
0.807852
0.711722
0.625278
0.549815
0.484487
0.4279
0.378964
0.336553
0.29983
0.268291
0.241383
0.218657
0.199626
0.183203
0.167876
0.152622
0.137042
0.120859
0.103931
0.0862594
0.0677502
0.0486256
0.0291259
0.00963127
0.508348
1.55432
2.68732
3.95785
5.39485
6.97695
8.59258
10.0263
11.0457
11.5835
11.7278
11.5662
11.1892
10.6868
10.0938
9.43117
8.72208
7.96825
7.20106
6.48599
5.85602
5.29834
4.79591
4.34251
3.92776
3.54761
3.20628
2.90356
2.64138
2.42311
2.2393
2.07022
1.90493
1.74424
1.58877
1.44028
1.30182
1.17256
1.05124
0.937397
0.829234
0.727694
0.636907
0.558795
0.491824
0.434043
0.384307
0.341258
0.303977
0.2721
0.245027
0.222392
0.203915
0.188324
0.173585
0.158496
0.142838
0.126341
0.108887
0.0905704
0.0711996
0.0510368
0.030486
0.0100484
0.507609
1.55741
2.71177
4.03706
5.5816
7.33917
9.18664
10.8415
11.9709
12.5018
12.5922
12.3486
11.8782
11.301
10.6406
9.9115
9.14297
8.3168
7.46599
6.68798
6.02486
5.44608
4.92472
4.45714
4.02773
3.63121
3.2768
2.96268
2.69197
2.47375
2.29632
2.13032
1.96209
1.79688
1.63563
1.48076
1.33764
1.20433
1.0789
0.961395
0.848373
0.740842
0.645521
0.565179
0.497023
0.438326
0.388094
0.344617
0.306872
0.274791
0.247633
0.225139
0.207445
0.193052
0.179112
0.164225
0.148545
0.13177
0.113796
0.0948912
0.0746649
0.053395
0.0317609
0.0104236
0.500606
1.54148
2.70425
4.07315
5.72167
7.66928
9.78956
11.716
12.964
13.4595
13.4792
13.1378
12.5563
11.9034
11.1759
10.378
9.55589
8.65456
7.70618
6.86037
6.17107
5.57699
5.03817
4.55986
4.11737
3.70354
3.33696
3.01138
2.73086
2.51479
2.3488
2.1882
2.01621
1.8465
1.67929
1.51734
1.37012
1.23329
1.10391
0.983535
0.865684
0.751208
0.651051
0.569081
0.500283
0.44089
0.390492
0.34679
0.308616
0.276473
0.249281
0.226896
0.210222
0.197488
0.184568
0.169845
0.1542
0.137177
0.118659
0.0992506
0.0781795
0.0556892
0.0329219
0.0107439
0.487304
1.5061
2.66299
4.0614
5.80618
7.95639
10.3982
12.6644
14.0381
14.4541
14.3871
13.9323
13.2166
12.4918
11.6994
10.828
9.96387
8.98533
7.91892
6.99935
6.29515
5.69305
5.13665
4.65216
4.19837
3.7649
3.38771
3.05049
2.7574
2.54577
2.39809
2.24545
2.0676
1.89355
1.72017
1.5499
1.39946
1.25976
1.12635
1.00429
0.88168
0.758755
0.653331
0.570633
0.501846
0.441854
0.391677
0.347954
0.309285
0.277262
0.250061
0.22763
0.212226
0.20176
0.190082
0.175371
0.159836
0.142591
0.123458
0.103681
0.0817892
0.0579007
0.033929
0.0109923
0.467847
1.4514
2.58702
3.99779
5.82571
8.18685
11.0067
13.7064
15.21
15.4782
15.314
14.7314
13.8494
13.0647
12.2121
11.2573
10.3713
9.31492
8.10016
7.09969
6.39837
5.79712
5.21997
4.7358
4.27275
3.81507
3.43021
3.08123
2.77046
2.56573
2.44598
2.304
2.11616
1.93845
1.75879
1.57804
1.4259
1.28411
1.14608
1.02422
0.897025
0.763325
0.652075
0.570015
0.50201
0.44129
0.391834
0.348302
0.308918
0.277285
0.250084
0.227267
0.213394
0.206027
0.195813
0.180777
0.165485
0.148052
0.128146
0.108222
0.0855586
0.0599989
0.034729
0.0111483
0.442565
1.37808
2.47635
3.87926
5.77067
8.3438
11.6053
14.8682
16.5015
16.5172
16.2582
15.5369
14.4412
13.6219
12.7164
11.6583
10.7845
9.652
8.24384
7.15427
6.48325
5.89331
5.28678
4.81286
4.34314
3.85299
3.4659
3.10535
2.7683
2.57308
2.49485
2.36634
2.1612
1.98166
1.79587
1.60101
1.44975
1.30689
1.16273
1.04403
0.912599
0.764593
0.646838
0.56748
0.50116
0.439193
0.391164
0.348061
0.307494
0.276693
0.2495
0.225682
0.213611
0.2105
0.20196
0.185981
0.171183
0.153613
0.132636
0.112928
0.0895807
0.061936
0.0352537
0.0111874
0.411956
1.2874
2.33202
3.70413
5.63185
8.40684
12.1775
16.1851
17.9411
17.5456
17.2196
16.3546
14.9721
14.1656
13.218
12.0185
11.2123
10.0092
8.34096
7.15355
6.55417
5.9874
5.33392
4.88603
4.41303
3.87622
3.49667
3.12544
2.7483
2.56531
2.54796
2.43564
2.20104
2.02377
1.83248
1.61746
1.47149
1.32883
1.17542
1.06457
0.929588
0.76198
0.636975
0.563407
0.499796
0.435426
0.389899
0.347509
0.304897
0.275669
0.248515
0.222679
0.212685
0.215461
0.208777
0.190807
0.176984
0.159358
0.136774
0.11787
0.0939882
0.0636385
0.0354183
0.0110822
0.376662
1.18113
2.15616
3.47239
5.40116
8.352
12.6973
17.7049
19.5664
18.521
18.2013
17.1963
15.4131
14.7019
13.7267
12.3174
11.6673
10.4046
8.37825
7.08488
6.61821
6.0874
5.35522
4.95891
4.48725
3.88026
3.52514
3.14533
2.70674
2.53873
2.60972
2.51606
2.23251
2.06567
1.87024
1.62521
1.49191
1.35106
1.18265
1.08701
0.949606
0.754557
0.621596
0.55836
0.498579
0.429644
0.388326
0.347006
0.300866
0.274448
0.247421
0.217974
0.210323
0.221299
0.216601
0.194941
0.182972
0.165421
0.140311
0.123152
0.098969
0.0649943
0.035121
0.010804
0.33744
1.06149
1.95193
3.18601
5.0725
8.1521
13.1244
19.4908
21.428
19.377
19.2125
18.0835
15.7216
15.2427
14.2591
12.523
12.1672
10.8634
8.33641
6.93181
6.68624
6.20433
5.34007
5.03658
4.57254
3.8575
3.55498
3.17057
2.6384
2.48804
2.6862
2.61304
2.25026
2.10877
1.91158
1.62081
1.51223
1.37523
1.18186
1.11289
0.974843
0.740895
0.599518
0.553169
0.498382
0.421195
0.38682
0.347034
0.294926
0.273343
0.246631
0.211169
0.206094
0.228537
0.225876
0.197867
0.189289
0.172014
0.142859
0.128928
0.104785
0.0658343
0.0342451
0.010325
0.295119
0.930989
1.72342
2.84906
4.64287
7.77795
13.398
21.6268
23.5938
20.0131
20.2728
19.0511
15.8344
15.8087
14.841
12.5861
12.737
11.4203
8.1879
6.67336
6.77415
6.35312
5.27137
5.12638
4.67836
3.79585
3.59144
3.209
2.53613
2.40587
2.78556
2.73379
2.24584
2.15538
1.96016
1.59899
1.53441
1.4038
1.16908
1.14431
1.00825
0.71888
0.569218
0.54902
0.50036
0.408975
0.385903
0.348252
0.286293
0.27278
0.246721
0.201722
0.199388
0.237884
0.237196
0.198785
0.196174
0.179463
0.143831
0.135419
0.111797
0.0659069
0.0326633
0.00962172
0.250558
0.792358
1.47547
2.46775
4.11345
7.20046
13.429
24.2231
26.1554
20.2819
21.4176
20.1527
15.6603
16.4331
15.5112
12.4338
13.4115
12.1224
7.894
6.28341
6.90435
6.55382
5.12286
5.23905
4.81797
3.67694
3.64205
3.27142
2.39036
2.28222
2.91873
2.88782
2.20648
2.20921
2.0213
1.5519
1.56147
1.44032
1.1383
1.1842
1.05375
0.685476
0.528797
0.547568
0.506028
0.391251
0.386314
0.351565
0.273756
0.273349
0.248483
0.188914
0.189366
0.250286
0.251356
0.196497
0.204005
0.188254
0.14236
0.142954
0.120487
0.064844
0.0302469
0.00867872
0.204607
0.648365
1.21339
2.05028
3.49067
6.39423
13.0895
27.4223
29.2361
19.9722
22.7065
21.4671
15.068
17.1673
16.3264
11.9602
14.2399
13.0313
7.40131
5.7301
7.1074
6.8331
4.85575
5.39023
5.00968
3.4738
3.71759
3.37238
2.18848
2.10377
3.10004
3.0877
2.11352
2.27611
2.10251
1.46815
1.59791
1.48986
1.08074
1.2366
1.11648
0.636427
0.475959
0.551056
0.517369
0.365421
0.389116
0.358214
0.255508
0.275868
0.252974
0.171814
0.174894
0.266983
0.269419
0.189265
0.213376
0.199093
0.137202
0.152007
0.131494
0.0621165
0.0268809
0.00749331
0.15807
0.501703
0.942681
1.60644
2.78695
5.34293
12.2002
31.4071
33.0011
18.789
24.2329
23.1055
13.8734
18.0867
17.3666
11.016
15.2899
14.2274
6.63748
4.97561
7.42368
7.22608
4.41462
5.60246
5.27843
3.14797
3.83339
3.53092
1.91417
1.8532
3.34799
3.34997
1.94059
2.36494
2.21424
1.33157
1.65035
1.5595
0.98393
1.30712
1.20309
0.565894
0.408016
0.562433
0.536957
0.327736
0.39583
0.36988
0.228961
0.281473
0.261575
0.149232
0.154473
0.289576
0.292797
0.174639
0.225178
0.212973
0.126605
0.163261
0.145646
0.0569792
0.022487
0.00607957
0.111677
0.354873
0.668765
1.14706
2.02103
4.04682
10.5149
36.4084
37.67
16.3287
26.1367
25.2202
11.822
19.2995
18.742
9.39487
16.6548
15.8124
5.50629
3.97626
7.905
7.77859
3.7224
5.90763
5.65755
2.64602
4.01092
3.7714
1.54668
1.50842
3.68603
3.69618
1.65125
2.48877
2.37057
1.11974
1.72819
1.65887
0.830589
1.40343
1.32195
0.466042
0.321931
0.585473
0.56811
0.27295
0.408608
0.388807
0.190497
0.291726
0.27605
0.119687
0.126165
0.320097
0.323357
0.149247
0.240706
0.231256
0.108159
0.17768
0.163993
0.0484026
0.0170558
0.00447167
0.0660652
0.210091
0.396674
0.683301
1.21739
2.53275
7.70232
42.7137
43.5321
12.0502
28.6203
28.014
8.56971
20.956
20.6006
6.8179
18.461
17.9132
3.88202
2.68313
8.61596
8.5499
2.6746
6.35001
6.19082
1.89546
4.27988
4.12408
1.06009
1.04172
4.14329
4.15431
1.19636
2.66628
2.59009
0.802221
1.84452
1.80081
0.597334
1.53599
1.48349
0.326551
0.21441
0.624872
0.615074
0.193925
0.430437
0.41794
0.135198
0.308756
0.298588
0.0813668
0.0875062
0.361068
0.363546
0.108546
0.261794
0.255763
0.0786154
0.196603
0.187846
0.0349945
0.0106912
0.00272491
0.0217631
0.0692308
0.130832
0.225836
0.404733
0.867009
3.32571
50.6764
50.9638
5.24231
31.9664
31.7507
3.66018
23.2604
23.1371
2.91623
20.8773
20.6844
1.60332
1.04339
9.63498
9.61589
1.13268
6.98983
6.9346
0.8001
4.68069
4.62576
0.422599
0.419056
4.75527
4.76026
0.51104
2.92344
2.89678
0.338593
2.01717
2.00211
0.253179
1.71878
1.70041
0.134094
0.0820461
0.686306
0.683237
0.0811772
0.465387
0.461076
0.0565205
0.335426
0.331844
0.0320946
0.0354194
0.415572
0.416532
0.0465443
0.290964
0.288868
0.0336808
0.221857
0.218808
0.0149085
0.00366617
0.000913412
)
;

boundaryField
{
    left
    {
        type            calculated;
        value           uniform 0;
    }
    right
    {
        type            calculated;
        value           uniform 0;
    }
    interface
    {
        type            calculated;
        value           nonuniform List<scalar> 
64
(
0.0217631
0.0692308
0.130832
0.225836
0.404733
0.867009
3.32571
50.6764
50.9638
5.24231
31.9664
31.7507
3.66018
23.2604
23.1371
2.91623
20.8773
20.6844
1.60332
1.04339
9.63498
9.61589
1.13268
6.98983
6.9346
0.8001
4.68069
4.62576
0.422599
0.419056
4.75527
4.76026
0.51104
2.92344
2.89678
0.338593
2.01717
2.00211
0.253179
1.71878
1.70041
0.134094
0.0820461
0.686306
0.683237
0.0811772
0.465387
0.461076
0.0565205
0.335426
0.331844
0.0320946
0.0354194
0.415572
0.416532
0.0465443
0.290964
0.288868
0.0336808
0.221857
0.218808
0.0149085
0.00366617
0.000913412
)
;
    }
    bottom
    {
        type            calculated;
        value           nonuniform List<scalar> 
64
(
0.0219473
0.0655949
0.108481
0.150028
0.189582
0.226417
0.259778
0.28894
0.313284
0.332365
0.345954
0.354059
0.356912
0.354929
0.34867
0.338781
0.325953
0.310877
0.294212
0.276561
0.258448
0.240317
0.22252
0.205327
0.18893
0.173457
0.158982
0.145531
0.133095
0.121639
0.111107
0.101429
0.092533
0.0843455
0.0767991
0.0698341
0.0633997
0.0574537
0.0519619
0.0468966
0.0422352
0.0379584
0.0340492
0.0304907
0.0272655
0.0243549
0.0217385
0.019394
0.0172981
0.0154262
0.0137531
0.0122538
0.0109031
0.00967717
0.00855317
0.00751036
0.00653027
0.00559704
0.00469755
0.00382136
0.00296048
0.00210914
0.0012634
0.000420778
)
;
    }
    defaultFaces
    {
        type            empty;
    }
}


// ************************************************************************* //
