/*--------------------------------*- C++ -*----------------------------------*\
| =========                 |                                                 |
| \\      /  F ield         | OpenFOAM: The Open Source CFD Toolbox           |
|  \\    /   O peration     | Version:  5.x                                   |
|   \\  /    A nd           | Web:      www.OpenFOAM.org                      |
|    \\/     M anipulation  |                                                 |
\*---------------------------------------------------------------------------*/
FoamFile
{
    version     2.0;
    format      ascii;
    class       volScalarField;
    location    "3";
    object      gradTy;
}
// * * * * * * * * * * * * * * * * * * * * * * * * * * * * * * * * * * * * * //

dimensions      [0 -1 0 1 0 0 0];

internalField   nonuniform List<scalar> 
2048
(
-21.1115
-21.0229
-20.8466
-20.5849
-20.2413
-19.8206
-19.3295
-18.7762
-18.1701
-17.5221
-16.8434
-16.1458
-15.4403
-14.7374
-14.0464
-13.3753
-12.7304
-12.1167
-11.5378
-10.9958
-10.4918
-10.0257
-9.59689
-9.20389
-8.84496
-8.51801
-8.22079
-7.951
-7.70635
-7.48464
-7.28378
-7.10184
-6.93706
-6.78785
-6.6528
-6.53062
-6.42018
-6.32045
-6.23051
-6.1495
-6.07666
-6.01124
-5.95259
-5.90008
-5.85312
-5.81116
-5.7737
-5.74027
-5.71045
-5.68386
-5.66016
-5.63904
-5.62024
-5.60355
-5.58876
-5.57574
-5.56436
-5.55453
-5.54618
-5.53927
-5.53377
-5.52965
-5.52691
-5.52554
-21.1831
-21.0936
-20.9156
-20.651
-20.3034
-19.8774
-19.3798
-18.8186
-18.2039
-17.5466
-16.8586
-16.1519
-15.4379
-14.7275
-14.0301
-13.3537
-12.7048
-12.0883
-11.5076
-10.9648
-10.4607
-9.99526
-9.5675
-9.17595
-8.81869
-8.49354
-8.19817
-7.93022
-7.68735
-7.46732
-7.26801
-7.08748
-6.92398
-6.77592
-6.64189
-6.52063
-6.41101
-6.31203
-6.22277
-6.14239
-6.07012
-6.00525
-5.9471
-5.89506
-5.84853
-5.80698
-5.76989
-5.7368
-5.70729
-5.68098
-5.65752
-5.63661
-5.61799
-5.60144
-5.58678
-5.57386
-5.56255
-5.55278
-5.54446
-5.53758
-5.53209
-5.52798
-5.52524
-5.52387
-21.3192
-21.2281
-21.0468
-20.7771
-20.4219
-19.9859
-19.4756
-18.8996
-18.2682
-17.5931
-16.8871
-16.1629
-15.4328
-14.708
-13.9984
-13.3121
-12.6556
-12.0338
-11.4498
-10.9055
-10.4015
-9.93723
-9.51163
-9.12289
-8.76887
-8.44719
-8.15539
-7.89096
-7.65147
-7.43463
-7.23826
-7.06042
-6.89933
-6.75343
-6.62133
-6.50179
-6.39372
-6.29614
-6.20816
-6.12895
-6.05778
-5.99392
-5.93673
-5.88558
-5.83989
-5.7991
-5.76272
-5.73027
-5.70134
-5.67555
-5.65254
-5.63203
-5.61375
-5.59749
-5.58306
-5.57031
-5.55914
-5.54946
-5.54122
-5.53438
-5.52891
-5.52481
-5.52208
-5.52071
-21.5122
-21.4191
-21.2335
-20.9566
-20.591
-20.1409
-19.6127
-19.0153
-18.3597
-17.6589
-16.9268
-16.1775
-15.4241
-14.6787
-13.9517
-13.2514
-12.5843
-11.9552
-11.3668
-10.8207
-10.3169
-9.8547
-9.43238
-9.04779
-8.69849
-8.38184
-8.09515
-7.83576
-7.60111
-7.38879
-7.1966
-7.02253
-6.86483
-6.72195
-6.59254
-6.4754
-6.36949
-6.27386
-6.18766
-6.1101
-6.04046
-5.97803
-5.92218
-5.87228
-5.82775
-5.78805
-5.75266
-5.72113
-5.69301
-5.66795
-5.64559
-5.62563
-5.60783
-5.59196
-5.57785
-5.56535
-5.55437
-5.54482
-5.53667
-5.52988
-5.52445
-5.52036
-5.51764
-5.51627
-21.7555
-21.6601
-21.4696
-21.1843
-20.806
-20.3383
-19.7874
-19.1624
-18.4757
-17.7415
-16.9756
-16.1937
-15.4105
-14.639
-13.89
-13.1722
-12.492
-11.8539
-11.2604
-10.7124
-10.2095
-9.75026
-9.3324
-8.95334
-8.61021
-8.30005
-8.01992
-7.76696
-7.53845
-7.33186
-7.14491
-6.97556
-6.82208
-6.68293
-6.55684
-6.44266
-6.33941
-6.24619
-6.16219
-6.08666
-6.01891
-5.95825
-5.90407
-5.85574
-5.81268
-5.77433
-5.74019
-5.70978
-5.68269
-5.65854
-5.63698
-5.61772
-5.6005
-5.58512
-5.5714
-5.55921
-5.54845
-5.53906
-5.53101
-5.52429
-5.51888
-5.51481
-5.51209
-5.51072
-22.0433
-21.9457
-21.75
-21.4557
-21.0633
-20.5752
-19.9971
-19.3388
-18.6138
-17.8387
-17.0314
-16.2099
-15.3907
-14.5878
-13.8128
-13.0745
-12.3793
-11.7312
-11.1322
-10.5827
-10.0814
-9.62615
-9.21407
-8.84194
-8.5064
-8.20415
-7.93194
-7.68669
-7.4655
-7.26571
-7.08494
-6.92112
-6.77253
-6.63771
-6.51544
-6.40467
-6.30447
-6.21401
-6.13255
-6.05937
-5.9938
-5.93522
-5.88298
-5.83648
-5.79514
-5.75838
-5.7257
-5.69662
-5.67072
-5.64763
-5.62701
-5.60856
-5.59204
-5.57722
-5.56395
-5.55211
-5.5416
-5.53238
-5.52444
-5.51777
-5.51238
-5.50832
-5.50559
-5.50422
-22.3701
-22.2705
-22.0702
-21.7671
-21.3597
-20.8491
-20.24
-19.5426
-18.7723
-17.9484
-17.0922
-16.2241
-15.3629
-14.524
-13.7194
-12.9582
-12.2463
-11.5876
-10.9832
-10.4328
-9.93424
-9.48438
-9.07952
-8.71577
-8.38925
-8.09626
-7.83325
-7.5969
-7.38412
-7.19207
-7.01829
-6.86068
-6.71754
-6.5875
-6.46943
-6.3624
-6.26555
-6.17815
-6.09947
-6.02889
-5.96576
-5.90947
-5.85942
-5.81499
-5.77557
-5.74061
-5.70957
-5.68198
-5.65743
-5.63553
-5.61596
-5.59842
-5.58266
-5.56848
-5.5557
-5.54423
-5.53399
-5.52495
-5.5171
-5.51048
-5.5051
-5.50103
-5.49829
-5.49691
-22.7306
-22.6299
-22.4261
-22.1151
-21.693
-21.1584
-20.5148
-19.7726
-18.9497
-18.069
-17.1558
-16.2343
-15.3255
-14.4463
-13.6091
-12.8229
-12.0934
-11.4238
-10.8145
-10.2642
-9.76977
-9.32682
-8.93074
-8.57685
-8.26075
-7.9783
-7.7257
-7.49935
-7.29596
-7.11252
-6.94643
-6.79557
-6.6583
-6.53337
-6.41979
-6.31673
-6.22346
-6.1393
-6.06361
-5.99581
-5.9353
-5.88151
-5.83384
-5.79167
-5.75438
-5.72138
-5.69214
-5.66618
-5.64309
-5.6225
-5.60407
-5.58752
-5.5726
-5.55909
-5.54684
-5.53576
-5.52579
-5.51691
-5.50915
-5.50256
-5.49717
-5.49307
-5.49031
-5.48891
-23.1199
-23.0191
-22.8137
-22.497
-22.0615
-21.5023
-20.821
-20.0282
-19.1447
-18.1986
-17.2203
-16.2384
-15.2767
-14.3532
-13.4809
-12.6684
-11.9207
-11.2402
-10.6269
-10.0782
-9.58949
-9.15521
-8.76956
-8.42706
-8.12272
-7.85206
-7.61097
-7.39565
-7.20257
-7.0285
-6.8707
-6.72702
-6.59591
-6.4763
-6.36737
-6.26844
-6.17889
-6.09811
-6.02554
-5.96064
-5.9029
-5.85177
-5.80665
-5.76691
-5.73191
-5.70102
-5.67371
-5.64949
-5.62797
-5.60876
-5.59156
-5.57607
-5.56203
-5.54924
-5.53754
-5.52686
-5.51715
-5.50842
-5.50073
-5.49413
-5.48871
-5.48456
-5.48176
-5.48034
-23.5329
-23.4336
-23.2294
-22.91
-22.4636
-21.8805
-21.1588
-20.3091
-19.3564
-18.3354
-17.2835
-16.2342
-15.2144
-14.2435
-13.3341
-12.4942
-11.7281
-11.0375
-10.4213
-9.87585
-9.3949
-8.97124
-8.59778
-8.26817
-7.97688
-7.71914
-7.4906
-7.28725
-7.10531
-6.94131
-6.7923
-6.65611
-6.53134
-6.41715
-6.31293
-6.2182
-6.13244
-6.05512
-5.98575
-5.92385
-5.86897
-5.82061
-5.77819
-5.74104
-5.70847
-5.67982
-5.65455
-5.63216
-5.61228
-5.59453
-5.57862
-5.56424
-5.55113
-5.53908
-5.52795
-5.51765
-5.50819
-5.4996
-5.49193
-5.4853
-5.47982
-5.4756
-5.47273
-5.47128
-23.9646
-23.8688
-23.6694
-23.352
-22.8986
-22.2932
-21.5289
-20.6158
-19.584
-18.4777
-17.3428
-16.2191
-15.1368
-14.1158
-13.168
-12.3003
-11.516
-10.8159
-10.1984
-9.65833
-9.18747
-8.77655
-8.41709
-8.10184
-7.82481
-7.58101
-7.36595
-7.17544
-7.00544
-6.85216
-6.71236
-6.58384
-6.46544
-6.35664
-6.25713
-6.1666
-6.08465
-6.01083
-5.94469
-5.88582
-5.83385
-5.78836
-5.74877
-5.71435
-5.68434
-5.65804
-5.63489
-5.6144
-5.59621
-5.57998
-5.56541
-5.55219
-5.54005
-5.52877
-5.51819
-5.50828
-5.49904
-5.49054
-5.48288
-5.47618
-5.47058
-5.46626
-5.46331
-5.46183
-24.4099
-24.32
-24.1301
-23.8205
-23.366
-22.7414
-21.9329
-20.949
-19.8268
-18.6233
-17.3958
-16.1908
-15.0418
-13.9688
-12.982
-12.0866
-11.2846
-10.576
-9.95892
-9.42678
-8.96867
-8.57281
-8.22916
-7.92967
-7.66795
-7.43899
-7.23826
-7.06137
-6.90407
-6.76213
-6.63188
-6.51108
-6.39896
-6.29542
-6.2005
-6.11412
-6.03598
-5.96565
-5.90273
-5.84689
-5.79785
-5.75529
-5.71865
-5.68711
-5.65978
-5.63592
-5.61495
-5.59641
-5.57995
-5.56527
-5.55207
-5.54005
-5.52892
-5.51842
-5.5084
-5.49885
-5.4898
-5.48137
-5.47366
-5.46683
-5.46108
-5.45662
-5.45358
-5.45206
-24.8635
-24.7825
-24.6075
-24.3133
-23.8653
-23.2268
-22.3733
-21.3102
-20.0841
-18.77
-17.4394
-16.1463
-14.9275
-13.8017
-12.7759
-11.8534
-11.0344
-10.3182
-9.70354
-9.18233
-8.74005
-8.36166
-8.03563
-7.75317
-7.50765
-7.29428
-7.10859
-6.94604
-6.80219
-6.67222
-6.5518
-6.43861
-6.33252
-6.23402
-6.14351
-6.06119
-5.98683
-5.91995
-5.86022
-5.80736
-5.76121
-5.72162
-5.68807
-5.65954
-5.635
-5.61366
-5.59491
-5.57834
-5.56364
-5.55053
-5.53874
-5.52796
-5.51787
-5.50816
-5.49867
-5.48945
-5.48057
-5.47215
-5.46435
-5.45735
-5.4514
-5.44676
-5.4436
-5.44204
-25.3202
-25.2514
-25.0979
-24.8281
-24.3965
-23.7515
-22.8534
-21.7015
-20.3549
-18.915
-17.4706
-16.0828
-14.7919
-13.6135
-12.5494
-11.601
-10.7659
-10.0429
-9.43281
-8.92613
-8.50322
-8.14479
-7.83809
-7.57379
-7.3451
-7.14791
-6.97788
-6.83031
-6.70067
-6.58336
-6.47299
-6.36714
-6.26667
-6.17287
-6.08651
-6.00815
-5.93752
-5.87404
-5.81744
-5.76748
-5.72412
-5.68755
-5.65722
-5.63186
-5.61021
-5.59144
-5.57495
-5.56034
-5.5474
-5.53588
-5.52551
-5.51602
-5.507
-5.49809
-5.48911
-5.48017
-5.47141
-5.46297
-5.45503
-5.4478
-5.44157
-5.43671
-5.43342
-5.43182
-25.7748
-25.7217
-25.5969
-25.3621
-24.9595
-24.3186
-23.378
-22.1259
-20.638
-19.0548
-17.4858
-15.9971
-14.6332
-13.4039
-12.303
-11.3302
-10.4801
-9.7504
-9.14711
-8.65938
-8.25994
-7.92388
-7.63809
-7.3929
-7.18137
-7.00077
-6.84694
-6.71486
-6.60024
-6.49643
-6.3963
-6.29723
-6.20182
-6.11232
-6.02979
-5.95527
-5.88837
-5.8282
-5.77466
-5.72748
-5.68675
-5.65318
-5.62626
-5.60427
-5.5856
-5.56944
-5.55521
-5.54253
-5.53133
-5.5214
-5.51248
-5.5043
-5.49642
-5.48831
-5.47978
-5.47108
-5.4624
-5.45389
-5.44577
-5.43825
-5.43167
-5.42654
-5.42311
-5.42147
-26.2222
-26.1885
-26.1001
-25.9124
-25.5542
-24.9315
-23.953
-22.5872
-20.9312
-19.1853
-17.4815
-15.8857
-14.4497
-13.1731
-12.037
-11.0423
-10.1782
-9.44077
-8.84654
-8.38332
-8.01219
-7.70063
-7.4371
-7.21183
-7.01737
-6.85361
-6.71646
-6.60021
-6.50152
-6.41229
-6.32257
-6.22939
-6.13829
-6.05263
-5.97351
-5.90278
-5.83964
-5.78266
-5.7321
-5.68755
-5.64919
-5.61861
-5.59536
-5.57696
-5.56133
-5.54781
-5.53583
-5.52502
-5.51552
-5.50718
-5.49969
-5.49289
-5.48621
-5.47891
-5.47076
-5.46224
-5.45361
-5.44498
-5.43662
-5.42875
-5.42172
-5.41627
-5.41268
-5.41103
-26.6574
-26.6468
-26.6029
-26.4756
-26.1799
-25.5944
-24.5862
-23.0909
-21.2311
-19.301
-17.4541
-15.7447
-14.2397
-12.922
-11.752
-10.7387
-9.86206
-9.11369
-8.53075
-8.09933
-7.76227
-7.47663
-7.23652
-7.0319
-6.8538
-6.70702
-6.58706
-6.48666
-6.40497
-6.33181
-6.25268
-6.16395
-6.07624
-5.99401
-5.91778
-5.85081
-5.79159
-5.73761
-5.68998
-5.64792
-5.61146
-5.58386
-5.56463
-5.55012
-5.53755
-5.52666
-5.51692
-5.50786
-5.50003
-5.49327
-5.48718
-5.48182
-5.47646
-5.46997
-5.4621
-5.45369
-5.44507
-5.43627
-5.42766
-5.41936
-5.41175
-5.40592
-5.40219
-5.40054
-27.0758
-27.0917
-27.1002
-27.0475
-26.8356
-26.3116
-25.2876
-23.6443
-21.5319
-19.3953
-17.4008
-15.5696
-14.002
-12.6525
-11.4486
-10.4212
-9.5343
-8.76822
-8.19881
-7.80901
-7.51299
-7.25333
-7.03758
-6.85448
-6.69111
-6.56145
-6.45935
-6.37429
-6.31085
-6.25591
-6.18762
-6.10107
-6.01572
-5.93668
-5.86256
-5.79949
-5.7445
-5.69317
-5.6485
-5.6088
-5.57354
-5.54886
-5.53421
-5.52396
-5.51436
-5.50611
-5.49859
-5.4911
-5.4849
-5.47973
-5.47497
-5.47113
-5.46725
-5.46159
-5.4538
-5.44545
-5.43684
-5.4278
-5.41891
-5.41013
-5.40176
-5.39548
-5.39166
-5.39005
-27.4731
-27.5186
-27.587
-27.6233
-27.5189
-27.0876
-26.0698
-24.258
-21.8241
-19.4601
-17.3204
-15.3547
-13.7352
-12.3685
-11.1265
-10.0921
-9.19889
-8.40235
-7.84895
-7.51432
-7.26787
-7.03176
-6.84136
-6.68113
-6.52936
-6.41719
-6.33403
-6.26286
-6.21922
-6.18563
-6.12858
-6.04063
-5.95663
-5.88086
-5.80766
-5.74886
-5.69871
-5.64937
-5.60784
-5.5705
-5.53527
-5.5135
-5.50422
-5.49872
-5.49184
-5.48623
-5.48095
-5.47473
-5.47015
-5.46661
-5.46304
-5.46082
-5.45865
-5.45386
-5.44587
-5.43751
-5.42894
-5.41957
-5.41044
-5.40113
-5.39175
-5.38494
-5.38109
-5.37959
-27.8456
-27.9231
-28.058
-28.1972
-28.2265
-27.9265
-26.9484
-24.947
-22.0925
-19.4853
-17.2146
-15.0923
-13.4384
-12.0761
-10.7842
-9.75405
-8.86195
-8.01239
-7.47829
-7.21783
-7.03158
-6.81226
-6.64864
-6.51384
-6.36807
-6.27436
-6.21211
-6.1517
-6.12986
-6.12217
-6.0771
-5.98212
-5.89868
-5.82696
-5.75271
-5.69893
-5.65467
-5.60611
-5.56816
-5.5334
-5.49636
-5.47753
-5.47482
-5.47471
-5.46999
-5.46706
-5.46414
-5.45872
-5.45578
-5.45396
-5.4513
-5.45086
-5.45077
-5.4469
-5.43826
-5.42985
-5.42142
-5.41157
-5.40226
-5.39242
-5.38167
-5.37426
-5.3705
-5.36921
-28.1902
-28.3014
-28.5078
-28.7627
-28.9529
-28.8309
-27.9426
-25.7341
-22.3125
-19.4589
-17.0907
-14.7708
-13.1106
-11.7854
-10.4174
-9.4098
-8.533
-7.59196
-7.08256
-6.92293
-6.81036
-6.5939
-6.4599
-6.35535
-6.20594
-6.13293
-6.0951
-6.03951
-6.0422
-6.067
-6.03526
-5.92435
-5.84141
-5.77568
-5.697
-5.64965
-5.61309
-5.56305
-5.52963
-5.49816
-5.45632
-5.4406
-5.44619
-5.45233
-5.44874
-5.44862
-5.44833
-5.44294
-5.44176
-5.44189
-5.43964
-5.44118
-5.44369
-5.44085
-5.43084
-5.42243
-5.41433
-5.40373
-5.39442
-5.38412
-5.37143
-5.36337
-5.35991
-5.35896
-28.5044
-28.65
-28.9313
-29.3127
-29.6909
-29.8016
-29.075
-26.6534
-22.4454
-19.3669
-16.9652
-14.3729
-12.7508
-11.513
-10.0172
-9.0624
-8.22683
-7.13054
-6.65593
-6.63421
-6.61286
-6.3737
-6.27526
-6.20978
-6.04033
-5.99274
-5.9855
-5.92415
-5.95525
-6.0219
-6.006
-5.86521
-5.78419
-5.72829
-5.63932
-5.60092
-5.57505
-5.51949
-5.49241
-5.46576
-5.41432
-5.40225
-5.41863
-5.43215
-5.42783
-5.4309
-5.4338
-5.42716
-5.42805
-5.43056
-5.42786
-5.43168
-5.43754
-5.43593
-5.42341
-5.41517
-5.40779
-5.39594
-5.38695
-5.37639
-5.3609
-5.35217
-5.34931
-5.34889
-28.7866
-28.9664
-29.3238
-29.8392
-30.4306
-30.8357
-30.3712
-27.7565
-22.4316
-19.1939
-16.8682
-13.8705
-12.3583
-11.2842
-9.56655
-8.71502
-7.96627
-6.61121
-6.19089
-6.35783
-6.45107
-6.14545
-6.09444
-6.08344
-5.8666
-5.8535
-5.8873
-5.80214
-5.86754
-5.98903
-5.99356
-5.8011
-5.72621
-5.68697
-5.57773
-5.55263
-5.54226
-5.47415
-5.45664
-5.43773
-5.36912
-5.36188
-5.3925
-5.41497
-5.40679
-5.41385
-5.42098
-5.411
-5.41463
-5.42025
-5.41565
-5.42221
-5.43247
-5.43248
-5.41566
-5.408
-5.40196
-5.38801
-5.37988
-5.36948
-5.34986
-5.34058
-5.33875
-5.33909
-29.0356
-29.2485
-29.681
-30.3341
-31.1598
-31.9251
-31.8584
-29.1221
-22.1799
-18.9235
-16.8516
-13.2199
-11.9322
-11.1386
-9.03641
-8.37082
-7.78607
-6.00733
-5.67854
-6.10174
-6.34187
-5.89801
-5.91683
-5.98601
-5.67706
-5.71483
-5.80685
-5.66814
-5.77714
-5.97094
-6.00414
-5.72627
-5.66655
-5.65533
-5.50909
-5.50465
-5.51738
-5.42491
-5.42247
-5.41649
-5.31874
-5.31881
-5.36832
-5.40192
-5.38481
-5.39743
-5.41056
-5.39388
-5.40144
-5.41144
-5.40258
-5.41262
-5.42869
-5.43098
-5.40708
-5.40084
-5.39718
-5.37965
-5.37326
-5.36379
-5.33801
-5.32849
-5.32829
-5.32965
-29.2513
-29.4951
-29.9993
-30.7894
-31.8638
-33.0552
-33.5617
-30.8687
-21.5538
-18.5403
-16.9982
-12.3521
-11.4727
-11.1359
-8.37907
-8.033
-7.73832
-5.27785
-5.10935
-5.87584
-6.30895
-5.61298
-5.7416
-5.93227
-5.45946
-5.57642
-5.75392
-5.51397
-5.68171
-5.97042
-6.04676
-5.63183
-5.60431
-5.63907
-5.42851
-5.45685
-5.50448
-5.36831
-5.39006
-5.40567
-5.26021
-5.27231
-5.34676
-5.39465
-5.36059
-5.38156
-5.40361
-5.37486
-5.38846
-5.40488
-5.388
-5.40271
-5.42642
-5.43219
-5.39693
-5.39362
-5.39394
-5.37038
-5.36715
-5.35993
-5.32488
-5.31582
-5.318
-5.32069
-29.4341
-29.7059
-30.2762
-31.1975
-32.5262
-34.2025
-35.4991
-33.1733
-20.3523
-18.032
-17.4344
-11.1616
-10.9807
-11.3645
-7.51978
-7.70486
-7.89963
-4.36066
-4.47491
-5.69167
-6.38551
-5.26153
-5.56799
-5.94427
-5.19489
-5.43814
-5.74314
-5.32745
-5.57876
-5.99029
-6.13451
-5.50441
-5.53873
-5.6469
-5.32853
-5.40921
-5.50965
-5.29901
-5.35959
-5.41064
-5.18908
-5.22177
-5.32861
-5.39547
-5.3321
-5.36622
-5.40174
-5.35256
-5.3757
-5.40172
-5.37097
-5.39229
-5.42589
-5.43721
-5.38409
-5.38628
-5.39306
-5.3595
-5.36162
-5.35882
-5.30975
-5.30254
-5.30805
-5.31234
-29.5848
-29.881
-30.5101
-31.5519
-33.1294
-35.3341
-37.6718
-36.2966
-18.2841
-17.3939
-18.3476
-9.48963
-10.4603
-11.9529
-6.34539
-7.3901
-8.38049
-3.16355
-3.7709
-5.56139
-6.61792
-4.80033
-5.39577
-6.05422
-4.85501
-5.30041
-5.79585
-5.09066
-5.46619
-6.03283
-6.28625
-5.32441
-5.46947
-5.69166
-5.19798
-5.36188
-5.5418
-5.20899
-5.33125
-5.43923
-5.09876
-5.16686
-5.31474
-5.40764
-5.2963
-5.35139
-5.40735
-5.32487
-5.36322
-5.40363
-5.35008
-5.38122
-5.42733
-5.44762
-5.36695
-5.37884
-5.39571
-5.34594
-5.35673
-5.36177
-5.2916
-5.28868
-5.29861
-5.30473
-29.705
-30.0216
-30.7005
-31.8477
-33.656
-36.4066
-40.0501
-40.6162
-14.9353
-16.6345
-20.0057
-7.10369
-9.92031
-13.0838
-4.68985
-7.09336
-9.33723
-1.55224
-3.00195
-5.49584
-7.07047
-4.1662
-5.22596
-6.30808
-4.39835
-5.16463
-5.94237
-4.77769
-5.34312
-6.09879
-6.52875
-5.0637
-5.397
-5.79177
-5.0205
-5.31531
-5.6136
-5.08651
-5.30532
-5.50249
-4.97968
-5.10791
-5.30591
-5.43566
-5.24876
-5.33715
-5.42381
-5.28874
-5.35113
-5.413
-5.32335
-5.36945
-5.4308
-5.46568
-5.34317
-5.37133
-5.4036
-5.32815
-5.35254
-5.37062
-5.26887
-5.27442
-5.2899
-5.29798
-29.7966
-30.1292
-30.848
-32.0819
-34.0904
-37.3675
-42.5541
-46.67
-9.72731
-15.784
-22.7827
-3.6707
-9.3778
-15.0116
-2.31601
-6.82119
-10.9867
0.665137
-2.18886
-5.50093
-7.83151
-3.26959
-5.06181
-6.77001
-3.76571
-5.03385
-6.22477
-4.35169
-5.21132
-6.18602
-6.89955
-4.68271
-5.32312
-5.97292
-4.77273
-5.27051
-5.74273
-4.91478
-5.28212
-5.61575
-4.81815
-5.04636
-5.30252
-5.48569
-5.18318
-5.32367
-5.45581
-5.23975
-5.33963
-5.43307
-5.28787
-5.35708
-5.43611
-5.49451
-5.30942
-5.36386
-5.41906
-5.30385
-5.34902
-5.38788
-5.23929
-5.2601
-5.28211
-5.29212
-29.8617
-30.2061
-30.9542
-32.2535
-34.4204
-38.159
-45.0254
-55.2106
-1.86552
-14.9053
-27.1873
1.27512
-8.86309
-18.0833
1.10637
-6.58355
-13.6239
3.7576
-1.37895
-5.57225
-9.02131
-1.98651
-4.91027
-7.52749
-2.87449
-4.91379
-6.7001
-3.76118
-5.07728
-6.28725
-7.45051
-4.12692
-5.25167
-6.27006
-4.42201
-5.22931
-5.95331
-4.67046
-5.26216
-5.79982
-4.59489
-4.98547
-5.30418
-5.56605
-5.09075
-5.3113
-5.50971
-5.1717
-5.32901
-5.46823
-5.23953
-5.34453
-5.44256
-5.53837
-5.26105
-5.35663
-5.44522
-5.26983
-5.34604
-5.4169
-5.1996
-5.2463
-5.2754
-5.28711
-29.9027
-30.2545
-31.0217
-32.3641
-34.6391
-38.724
-47.1914
-67.2718
9.72202
-14.1086
-33.8967
8.37063
-8.42609
-22.7621
6.02658
-6.39585
-17.6428
8.09516
-0.660015
-5.68695
-10.8018
-0.149055
-4.78374
-8.69736
-1.61192
-4.81413
-7.44413
-2.93551
-4.95502
-6.38718
-8.25227
-3.32256
-5.18951
-6.7297
-3.92366
-5.19473
-6.27748
-4.32171
-5.24614
-6.08244
-4.28337
-4.93127
-5.30908
-5.68787
-4.95947
-5.30057
-5.5939
-5.07603
-5.31971
-5.52415
-5.1726
-5.33268
-5.44866
-5.60293
-5.1917
-5.34987
-5.48617
-5.22163
-5.34326
-5.46208
-5.14519
-5.23395
-5.26975
-5.28274
-29.9219
-30.2774
-31.0537
-32.417
-34.7461
-39.0179
-48.6191
-84.2483
26.4567
-13.5702
-43.7924
18.4675
-8.14496
-29.6546
13.0422
-6.28204
-23.5602
14.177
-0.178868
-5.79319
-13.3887
2.46518
-4.70286
-10.4329
0.172235
-4.75067
-8.55598
-1.77991
-4.8705
-6.45903
-9.39998
-2.17226
-5.14817
-7.41297
-3.21849
-5.17212
-6.75785
-3.8267
-5.23574
-6.50047
-3.84826
-4.89436
-5.3138
-5.86643
-4.77395
-5.29295
-5.71987
-4.94182
-5.31298
-5.60879
-5.0799
-5.32375
-5.45237
-5.69636
-5.09343
-5.34461
-5.54778
-5.15385
-5.34075
-5.52969
-5.07039
-5.22507
-5.26556
-5.2793
)
;

boundaryField
{
    left
    {
        type            calculated;
        value           nonuniform List<scalar> 
32
(
-21.1115
-21.1831
-21.3192
-21.5122
-21.7555
-22.0433
-22.3701
-22.7306
-23.1199
-23.5329
-23.9646
-24.4099
-24.8635
-25.3202
-25.7748
-26.2222
-26.6574
-27.0758
-27.4731
-27.8456
-28.1902
-28.5044
-28.7866
-29.0356
-29.2513
-29.4341
-29.5848
-29.705
-29.7966
-29.8617
-29.9027
-29.9219
)
;
    }
    right
    {
        type            calculated;
        value           nonuniform List<scalar> 
32
(
-5.52554
-5.52387
-5.52071
-5.51627
-5.51072
-5.50422
-5.49691
-5.48891
-5.48034
-5.47128
-5.46183
-5.45206
-5.44204
-5.43182
-5.42147
-5.41103
-5.40054
-5.39005
-5.37959
-5.36921
-5.35896
-5.34889
-5.33909
-5.32965
-5.32069
-5.31234
-5.30473
-5.29798
-5.29212
-5.28711
-5.28274
-5.2793
)
;
    }
    interface
    {
        type            calculated;
        value           nonuniform List<scalar> 
64
(
-29.9265
-30.2828
-31.0614
-32.4297
-34.772
-39.0926
-49.0826
-94.1649
36.3128
-13.3924
-49.6611
24.3875
-8.05521
-33.74
17.1588
-6.24726
-27.0665
17.7253
-0.0204466
-5.83554
-14.9145
3.99804
-4.67704
-11.4638
1.21606
-4.73045
-9.21787
-1.10614
-4.84184
-6.48378
-10.074
-1.49683
-5.13452
-7.81917
-2.80583
-5.16468
-7.04317
-3.53675
-5.23225
-6.74862
-3.59481
-4.88193
-5.31559
-5.97213
-4.6655
-5.2902
-5.79499
-4.86358
-5.31051
-5.65947
-5.02613
-5.32043
-5.45336
-5.75151
-5.036
-5.34256
-5.58464
-5.11437
-5.33962
-5.57006
-5.02713
-5.22187
-5.26395
-5.27792
)
;
    }
    bottom
    {
        type            calculated;
        value           nonuniform List<scalar> 
64
(
-21.0928
-21.0044
-20.8286
-20.5677
-20.2251
-19.8058
-19.3165
-18.7651
-18.1613
-17.5156
-16.8394
-16.1441
-15.4408
-14.7399
-14.0506
-13.3808
-12.737
-12.1241
-11.5457
-11.0039
-10.4999
-10.0337
-9.60455
-9.21118
-8.85182
-8.5244
-8.2267
-7.95643
-7.71132
-7.48917
-7.2879
-7.10559
-6.94048
-6.79098
-6.65565
-6.53324
-6.42258
-6.32266
-6.23254
-6.15137
-6.07837
-6.01281
-5.95403
-5.9014
-5.85432
-5.81225
-5.77469
-5.74118
-5.71128
-5.68462
-5.66085
-5.63967
-5.62083
-5.6041
-5.58928
-5.57624
-5.56484
-5.55499
-5.54663
-5.53972
-5.53421
-5.53009
-5.52734
-5.52597
)
;
    }
    defaultFaces
    {
        type            empty;
    }
}


// ************************************************************************* //
