/*--------------------------------*- C++ -*----------------------------------*\
| =========                 |                                                 |
| \\      /  F ield         | OpenFOAM: The Open Source CFD Toolbox           |
|  \\    /   O peration     | Version:  5.x                                   |
|   \\  /    A nd           | Web:      www.OpenFOAM.org                      |
|    \\/     M anipulation  |                                                 |
\*---------------------------------------------------------------------------*/
FoamFile
{
    version     2.0;
    format      ascii;
    class       volScalarField;
    location    "3";
    object      gradTx;
}
// * * * * * * * * * * * * * * * * * * * * * * * * * * * * * * * * * * * * * //

dimensions      [0 -1 0 1 0 0 0];

internalField   nonuniform List<scalar> 
2048
(
0.020329
0.0607441
0.100406
0.138751
0.175144
0.208887
0.239256
0.26557
0.28725
0.303893
0.315307
0.321533
0.322822
0.319608
0.312451
0.301995
0.288916
0.273884
0.257529
0.240421
0.223054
0.205836
0.189087
0.173049
0.15789
0.143713
0.130574
0.118484
0.107421
0.0973423
0.0881833
0.0798714
0.0723294
0.0654807
0.0592534
0.0535826
0.0484112
0.0436907
0.0393796
0.0354434
0.0318532
0.0285841
0.0256143
0.0229239
0.0204939
0.0183056
0.0163402
0.014579
0.013003
0.0115934
0.0103317
0.00919955
0.00817907
0.00725306
0.00640516
0.00562009
0.00488399
0.00418468
0.0035118
0.002857
0.00221388
0.00157781
0.000945607
0.000315073
0.0602998
0.180199
0.297918
0.411804
0.519969
0.620317
0.710665
0.788931
0.85336
0.902718
0.936431
0.954626
0.958081
0.948112
0.926424
0.894955
0.855737
0.810774
0.761952
0.710971
0.659292
0.608123
0.558411
0.510859
0.465956
0.424002
0.385148
0.349423
0.316758
0.287012
0.259996
0.235488
0.213255
0.193067
0.174711
0.157994
0.142746
0.128825
0.116109
0.104496
0.0939029
0.0842564
0.0754933
0.0675554
0.060387
0.0539331
0.0481384
0.0429472
0.0383036
0.0341519
0.030437
0.0271047
0.024102
0.021378
0.0188839
0.0165744
0.0144083
0.0123494
0.010367
0.00843655
0.00653915
0.00466144
0.00279439
0.000931326
0.0990558
0.296079
0.489696
0.677249
0.855634
1.02133
1.17061
1.29988
1.40612
1.4872
1.54214
1.5712
1.57573
1.55801
1.52096
1.46786
1.40213
1.32712
1.24597
1.16149
1.07608
0.991731
0.909964
0.831908
0.758331
0.689701
0.626235
0.56796
0.514742
0.466334
0.422408
0.382587
0.346478
0.313698
0.283889
0.256735
0.23196
0.209331
0.188653
0.169764
0.152528
0.136831
0.122571
0.109657
0.0979987
0.0875073
0.0780926
0.0696635
0.0621284
0.0553959
0.0493759
0.0439794
0.0391197
0.0347128
0.0306786
0.0269422
0.0234358
0.0200997
0.0168837
0.0137476
0.0106609
0.00760253
0.00455961
0.00152047
0.136875
0.409251
0.677285
0.937436
1.18541
1.41617
1.62428
1.80444
1.95214
2.06422
2.1393
2.17779
2.18178
2.15464
2.10063
2.02448
1.93108
1.82516
1.71115
1.59296
1.47394
1.3568
1.2436
1.13584
1.03452
0.940227
0.853209
0.773459
0.700757
0.63473
0.574893
0.520701
0.471587
0.427009
0.386467
0.349522
0.315797
0.284976
0.256797
0.231042
0.207533
0.186118
0.166666
0.149055
0.133164
0.118874
0.10606
0.0945975
0.08436
0.0752217
0.0670584
0.0597478
0.0531701
0.047209
0.0417533
0.0366991
0.0319519
0.0274289
0.023061
0.0187931
0.014584
0.0104055
0.00624405
0.00208346
0.173913
0.520226
0.861661
1.19396
1.51166
1.80809
2.07582
2.3075
2.49682
2.63945
2.73351
2.77971
2.78105
2.74221
2.66898
2.56771
2.44484
2.30658
2.15865
2.00613
1.85325
1.70344
1.55923
1.42244
1.29422
1.17522
1.06568
0.965534
0.874437
0.791866
0.717159
0.649578
0.588373
0.532828
0.4823
0.436229
0.394145
0.355655
0.320438
0.28823
0.258817
0.232018
0.207677
0.185649
0.165787
0.147941
0.131955
0.117672
0.104929
0.0935683
0.0834324
0.0743668
0.0662193
0.0588419
0.0520922
0.045837
0.039955
0.0343406
0.0289059
0.0235817
0.0183172
0.0130781
0.00785258
0.00262176
0.210212
0.629177
1.04326
1.44773
1.83596
2.19948
2.52848
2.81307
3.04473
3.21764
3.32944
3.3813
3.37739
3.324
3.22873
3.09971
2.94508
2.77257
2.58929
2.40146
2.21425
2.03171
1.85681
1.69157
1.53725
1.39449
1.26347
1.144
1.03561
0.937605
0.849103
0.769153
0.696797
0.631136
0.57138
0.516854
0.467002
0.421364
0.379569
0.341314
0.306357
0.274499
0.245567
0.219398
0.195824
0.174668
0.155741
0.138851
0.123805
0.110409
0.0984761
0.0878196
0.0782563
0.0696062
0.0616957
0.0543613
0.0474548
0.0408472
0.0344323
0.0281276
0.0218731
0.0156303
0.00939157
0.00313743
0.245702
0.735949
1.22202
1.69899
2.15918
2.59203
2.98486
3.32456
3.59979
3.8029
3.93105
3.98613
3.97385
3.90255
3.7819
3.62205
3.43293
3.22392
3.00355
2.77922
2.55702
2.34162
2.13629
1.9432
1.76358
1.59799
1.44652
1.30883
1.18428
1.07197
0.970776
0.879506
0.796959
0.722042
0.653816
0.591499
0.534459
0.482182
0.434255
0.390345
0.350192
0.313586
0.280349
0.250308
0.223278
0.199054
0.177417
0.158137
0.140988
0.125746
0.112192
0.10011
0.0892879
0.0795123
0.0705774
0.0622886
0.0544698
0.0469685
0.0396599
0.0324489
0.0252674
0.0180741
0.0108685
0.0036329
0.280205
0.840078
1.39738
1.9474
2.4815
2.98679
3.447
3.84491
4.16548
4.39886
4.54174
4.59712
4.57283
4.47971
4.3299
4.13574
3.90912
3.66108
3.40164
3.13947
2.88157
2.63314
2.39768
2.17734
1.97325
1.78581
1.61493
1.46012
1.32056
1.1951
1.08236
0.980836
0.889072
0.805758
0.729808
0.660347
0.596681
0.538254
0.484621
0.435429
0.390406
0.349346
0.312075
0.278421
0.248184
0.221132
0.197011
0.175556
0.156504
0.139602
0.124601
0.11126
0.0993351
0.0885822
0.078761
0.069644
0.0610259
0.0527299
0.044613
0.0365676
0.0285183
0.0204232
0.0122915
0.00411077
0.313443
0.940799
1.5683
2.19199
2.8025
3.38425
3.91653
4.37673
4.74504
5.00882
5.16446
5.21667
5.17611
5.05674
4.87358
4.64138
4.374
4.08422
3.78359
3.48213
3.18778
2.90621
2.641
2.39411
2.16642
1.95812
1.7689
1.59809
1.44467
1.30725
1.18412
1.07345
0.973442
0.882578
0.799627
0.723639
0.653881
0.58977
0.530836
0.476712
0.427123
0.381878
0.340826
0.303803
0.270601
0.240958
0.214578
0.191157
0.170398
0.152016
0.135739
0.121301
0.108429
0.0968473
0.0862783
0.0764591
0.0671538
0.0581611
0.0493193
0.0405083
0.0316458
0.0226922
0.013669
0.00457365
0.345044
1.03707
1.73329
2.43124
3.12111
3.78436
4.3947
4.92248
5.34158
5.63588
5.80182
5.84669
5.78493
5.6344
5.41338
5.13919
4.82767
4.49328
4.14922
3.80697
3.47548
3.16078
2.8663
2.59366
2.34335
2.11521
1.90872
1.72303
1.55691
1.40873
1.27643
1.15771
1.05045
0.952861
0.863598
0.781664
0.706315
0.636955
0.5731
0.514369
0.460492
0.411305
0.3667
0.326541
0.290609
0.258605
0.230188
0.205008
0.182729
0.163042
0.145653
0.130273
0.116608
0.104345
0.0931665
0.08277
0.0728883
0.0632946
0.0538084
0.0442972
0.0346713
0.0248962
0.0150097
0.00502399
0.37455
1.12758
1.89043
2.66303
3.43566
4.18656
4.88252
5.4846
5.95822
6.28302
6.45614
6.48865
6.40002
6.2129
5.9493
5.62909
5.27001
4.88809
4.49824
4.11367
3.74444
3.39678
3.07371
2.77627
2.50438
2.25747
2.03477
1.83529
1.65764
1.49994
1.35969
1.23409
1.12053
1.01701
0.92208
0.834736
0.754259
0.680059
0.611637
0.548599
0.490679
0.437762
0.38981
0.346732
0.308298
0.274162
0.243926
0.217186
0.19357
0.172742
0.154394
0.138225
0.123916
0.111118
0.099467
0.0886163
0.0782658
0.0681642
0.0581117
0.0479619
0.037617
0.0270505
0.0163214
0.00546393
0.40144
1.21083
2.03742
2.88468
3.74383
4.58978
5.3808
6.06561
6.59825
6.95321
7.12944
7.14354
7.02156
6.79203
6.48097
6.11076
5.70077
5.26838
4.83026
4.40181
3.99439
3.61418
3.26343
2.94229
2.64995
2.38534
2.1475
1.93529
1.74725
1.58128
1.43439
1.30307
1.18418
1.07548
0.975459
0.883183
0.798
0.71934
0.646684
0.579615
0.517869
0.461395
0.410273
0.36448
0.323769
0.287728
0.255888
0.227783
0.203
0.181186
0.162023
0.145205
0.130397
0.117212
0.105224
0.0940391
0.0833242
0.0728044
0.0622604
0.0515307
0.0405054
0.0291702
0.0176113
0.00589512
0.425143
1.28512
2.1716
3.09297
4.04262
4.99237
5.89015
6.66832
7.26529
7.64941
7.82348
7.81193
7.64923
7.3711
7.00774
6.58372
6.11969
5.63385
5.14483
4.67089
4.22505
3.81301
3.43573
3.09219
2.78061
2.49939
2.24739
2.02346
1.82614
1.6532
1.50103
1.36521
1.24192
1.12872
1.02413
0.927337
0.83783
0.755063
0.678485
0.607643
0.542252
0.482352
0.428203
0.379889
0.337128
0.299411
0.26618
0.236897
0.211106
0.188445
0.168598
0.151262
0.136099
0.122672
0.110484
0.0990807
0.0881008
0.0772487
0.0662859
0.0550323
0.0433596
0.0312696
0.0188853
0.00631857
0.445069
1.34869
2.29005
3.28418
4.32835
5.39209
6.41109
7.29594
7.96339
8.3746
8.53971
8.49388
8.28215
7.94899
7.52869
7.04737
6.5265
5.98429
5.44142
4.92031
4.4361
3.99335
3.59099
3.22654
2.89701
2.60021
2.33501
2.10029
1.89472
1.71612
1.56017
1.42111
1.29431
1.17722
1.06849
0.967518
0.874028
0.78749
0.707288
0.632917
0.564028
0.500777
0.44371
0.393065
0.348485
0.309322
0.274913
0.244631
0.217978
0.194598
0.174181
0.156445
0.141064
0.127547
0.115295
0.103783
0.0926317
0.0815291
0.0702179
0.0584957
0.0462031
0.0333619
0.0201478
0.00673453
0.460636
1.39972
2.38968
3.4541
4.59654
5.78591
6.94397
7.95236
8.69726
9.13175
9.27922
9.18896
8.91884
8.5242
8.04268
7.50102
6.92109
6.31962
5.71947
5.14933
4.62725
4.15541
3.72969
3.34601
2.9999
2.68848
2.41095
2.16625
1.95334
1.77046
1.61237
1.47142
1.34192
1.22145
1.10891
1.00402
0.906862
0.816876
0.733337
0.655681
0.583406
0.516808
0.456887
0.404105
0.357953
0.317578
0.282204
0.251094
0.223709
0.19972
0.178832
0.160798
0.145333
0.131886
0.119707
0.108188
0.0969509
0.085675
0.0740843
0.0619504
0.0490605
0.0354592
0.0214005
0.00714219
0.471306
1.4365
2.46736
3.59815
4.84192
6.16993
7.48897
8.64243
9.47249
9.92371
10.0426
9.89623
9.55717
9.09485
8.54847
7.94393
7.30357
6.64003
5.9783
5.357
4.79819
4.29952
3.85243
3.45142
3.09011
2.76491
2.47584
2.22182
2.00233
1.81658
1.65825
1.51684
1.38533
1.26189
1.14578
1.03713
0.936579
0.843466
0.75687
0.676189
0.600606
0.53057
0.46781
0.413102
0.365649
0.324298
0.288173
0.2564
0.228392
0.20389
0.182609
0.164357
0.148943
0.135739
0.123772
0.112335
0.101089
0.0897123
0.07791
0.065427
0.0519582
0.0375714
0.0226419
0.00753938
0.47662
1.45749
2.52004
3.71148
5.05838
6.53911
8.04598
9.37227
10.2958
10.7529
10.8301
10.6143
10.1943
9.65876
9.04477
8.37527
7.67438
6.94608
6.21711
5.54213
4.9487
4.42621
3.95986
3.54366
3.16859
2.83021
2.53033
2.26753
2.04191
1.85478
1.69849
1.55816
1.42511
1.299
1.17944
1.06704
0.963403
0.867498
0.778107
0.69471
0.615865
0.542168
0.476523
0.420146
0.371696
0.329601
0.292947
0.260666
0.232117
0.207185
0.18557
0.16715
0.151922
0.139159
0.127548
0.116259
0.105073
0.0936628
0.0817155
0.0689577
0.0549258
0.0397061
0.023866
0.0079221
0.476231
1.46141
2.54493
3.78912
5.23894
6.887
8.61435
10.1499
11.1753
11.6211
11.6411
11.3413
10.8265
10.2136
9.53038
8.794
8.03444
7.23892
6.43486
5.70307
5.07864
4.53629
4.05271
3.62377
3.23642
2.88508
2.57514
2.30391
2.07217
1.88523
1.73384
1.59625
1.4618
1.3332
1.21023
1.09393
0.987539
0.889204
0.797243
0.711532
0.629448
0.551675
0.48303
0.425322
0.376228
0.333602
0.296653
0.264013
0.234969
0.209685
0.187773
0.169195
0.154286
0.142205
0.131097
0.119993
0.108925
0.0975444
0.085515
0.0725781
0.0579987
0.0418669
0.0250604
0.00828387
0.469931
1.44738
2.5397
3.82618
5.37576
7.20536
9.19259
10.9858
12.1212
12.5283
12.4745
12.0755
11.4488
10.7569
10.0044
9.19865
8.3853
7.52053
6.63005
5.8376
5.18808
4.63096
4.13166
3.69288
3.29479
2.93008
2.61101
2.33157
2.09302
1.90793
1.76516
1.63212
1.49585
1.36491
1.23848
1.11787
1.00918
0.908821
0.814424
0.726972
0.641667
0.559124
0.487282
0.428721
0.3794
0.336408
0.299424
0.266568
0.237021
0.21147
0.189281
0.17049
0.156039
0.144946
0.134493
0.123557
0.112663
0.101371
0.089313
0.0763281
0.0612203
0.044052
0.0262038
0.00861492
0.457678
1.41498
2.5026
3.81812
5.46033
7.48374
9.77765
11.8939
13.1462
13.472
13.3286
12.8152
12.0546
11.2865
10.4666
9.58691
8.72935
7.79413
6.80053
5.94265
5.27749
4.71196
4.19718
3.75227
3.34512
2.9656
2.63877
2.35129
2.10414
1.92267
1.79352
1.66697
1.52755
1.3945
1.26455
1.1388
1.0285
0.926606
0.829715
0.741392
0.652905
0.564487
0.489159
0.43045
0.381392
0.338103
0.301396
0.268468
0.238327
0.212625
0.190165
0.171015
0.157163
0.147464
0.137823
0.12696
0.116302
0.105153
0.0930992
0.0802555
0.0646471
0.0462515
0.0272635
0.00890132
0.439601
1.3643
2.43268
3.76102
5.48357
7.70906
10.364
12.893
14.2665
14.4455
14.2013
13.5601
12.6352
11.8008
10.9176
9.95488
9.07015
8.06463
6.94307
6.01399
5.34796
4.78177
4.24929
3.80337
3.38909
2.99162
2.65939
2.36407
2.10486
1.92887
1.82026
1.70226
1.55691
1.42234
1.28886
1.15649
1.04572
0.942868
0.843053
0.755216
0.663648
0.567644
0.488447
0.430651
0.382431
0.338733
0.302715
0.269867
0.238909
0.213243
0.190512
0.170718
0.157613
0.149866
0.141194
0.130183
0.119854
0.108903
0.0968413
0.0844189
0.0683538
0.0484428
0.0281923
0.00912422
0.416006
1.29598
2.32987
3.65191
5.43627
7.86515
10.9422
14.0081
15.503
15.4349
15.0909
14.3115
13.1779
12.2994
11.36
10.296
9.41279
8.33937
7.05281
6.04587
5.40158
4.8439
4.28719
3.8479
3.42884
3.0075
2.67403
2.3713
2.09406
1.9255
1.84715
1.7398
1.58351
1.44883
1.31197
1.17043
1.0611
0.958009
0.854161
0.76896
0.674542
0.568347
0.484813
0.429524
0.382804
0.338279
0.303542
0.270949
0.238738
0.213431
0.190442
0.169513
0.157305
0.152293
0.144744
0.133171
0.123335
0.112639
0.100473
0.088893
0.0724416
0.0505852
0.0289253
0.00925949
0.387359
1.21119
2.19514
3.48912
5.30956
7.93248
11.4965
15.2732
16.883
16.416
15.9965
15.075
13.6647
12.784
11.7988
10.5994
9.76453
8.62909
7.12242
6.03053
5.44193
4.90321
4.3086
3.88794
3.46716
3.01159
2.68416
2.37502
2.07001
1.91087
1.87654
1.78191
1.60622
1.47445
1.33467
1.1797
1.07503
0.972593
0.862435
0.783277
0.686457
0.566161
0.477773
0.427367
0.382888
0.336611
0.304067
0.271938
0.237705
0.21332
0.190116
0.167261
0.156103
0.154939
0.14865
0.135809
0.12677
0.116394
0.103875
0.0937763
0.0770481
0.0526102
0.0293781
0.00927804
0.354268
1.1116
2.03046
3.27257
5.09563
7.88807
12.0019
16.7335
18.4429
17.3488
16.9207
15.8616
14.069
13.2595
12.2432
10.8475
10.1357
8.94909
7.14106
5.9577
5.47476
4.96643
4.30898
3.92627
3.50784
3.00071
2.69174
2.37811
2.03016
1.88248
1.91164
1.83155
1.62288
1.49988
1.35814
1.18276
1.0881
0.987441
0.866772
0.799019
0.700571
0.560388
0.466654
0.424625
0.383182
0.333432
0.304525
0.27313
0.235582
0.213081
0.189768
0.163757
0.1538
0.158063
0.153146
0.137893
0.130208
0.12023
0.106855
0.0992013
0.0823603
0.0544093
0.0294466
0.00914731
0.317446
0.999293
1.83881
3.00407
4.78857
7.70588
12.42
18.4496
20.231
18.1703
17.8712
16.6914
14.3517
13.736
12.7083
11.0124
10.5408
9.32084
7.09287
5.81403
5.50888
5.04267
4.28031
3.96672
3.55614
2.96938
2.6995
2.38471
1.97089
1.83663
1.95676
1.89264
1.62977
1.5262
1.38415
1.17717
1.10124
1.00376
0.865332
0.817325
0.718488
0.549962
0.450559
0.421945
0.384346
0.328191
0.305229
0.274924
0.231964
0.212941
0.189722
0.158711
0.150097
0.162024
0.15854
0.139087
0.133736
0.124253
0.109107
0.105349
0.0886313
0.0558164
0.0290086
0.00883409
0.277678
0.876658
1.62406
2.68745
4.38543
7.35796
12.6926
20.5013
22.3124
18.7857
18.8653
17.5971
14.4554
14.2317
13.2178
11.0517
11.0007
9.77383
6.95506
5.58252
5.55709
5.14423
4.20953
4.0148
3.61939
2.90879
2.71129
2.40061
1.8872
1.76821
2.01773
1.97029
1.62096
1.55509
1.41531
1.15916
1.1159
1.02334
0.85522
0.839752
0.742365
0.533315
0.428328
0.420255
0.387257
0.319974
0.306616
0.277867
0.226192
0.213215
0.190433
0.151723
0.144572
0.167304
0.165244
0.138865
0.137508
0.128644
0.110167
0.112471
0.0961999
0.0565836
0.0279307
0.00830873
0.235778
0.746268
1.39077
2.32856
3.88724
6.81641
12.7346
22.9936
24.7747
19.0553
19.9351
18.6289
14.2966
14.7755
13.8068
10.9024
11.5444
10.3478
6.69543
5.24204
5.63748
5.28752
4.07644
4.07854
3.70775
2.8055
2.73257
2.43375
1.7723
1.67021
2.10231
2.07124
1.58748
1.58927
1.45541
1.12312
1.13429
1.04875
0.832061
0.868449
0.775077
0.508201
0.398504
0.420846
0.393077
0.307351
0.309307
0.28271
0.217255
0.214346
0.192524
0.142253
0.136648
0.174547
0.173808
0.136442
0.141777
0.13369
0.109352
0.120913
0.105514
0.0563502
0.026079
0.00755061
0.192551
0.610747
1.14397
1.93517
3.30004
6.05689
12.4238
26.0624
27.7358
18.7796
21.1348
19.8603
13.7557
15.4126
14.5266
10.4729
12.213
11.0952
6.26939
4.767
5.77463
5.49419
3.8511
4.16966
3.83523
2.63969
2.7712
2.49476
1.61722
1.53331
2.22065
2.20439
1.51622
1.63294
1.5098
1.06089
1.1597
1.08366
0.789461
0.906388
0.820391
0.471482
0.359311
0.425466
0.403332
0.288193
0.314191
0.290487
0.203653
0.216959
0.196826
0.129587
0.125554
0.1846
0.184961
0.130672
0.146944
0.139826
0.105681
0.131156
0.11716
0.0546015
0.0233361
0.00655403
0.14876
0.472647
0.888896
1.51657
2.63561
5.06371
11.5889
29.8816
31.3533
17.6798
22.5505
21.3949
12.6648
16.2099
15.4492
9.63385
13.0637
12.0841
5.6163
4.12718
6.00104
5.79258
3.4906
4.30509
4.02082
2.38304
2.83831
2.59756
1.41026
1.34538
2.38584
2.38141
1.38857
1.69243
1.58592
0.960904
1.19693
1.13318
0.718333
0.957675
0.883168
0.418869
0.308652
0.436414
0.420018
0.259441
0.322538
0.302593
0.183245
0.221932
0.204424
0.112803
0.110284
0.198553
0.199668
0.119938
0.153614
0.14769
0.0977717
0.143861
0.131892
0.0506183
0.0196248
0.00533339
0.105098
0.334343
0.630682
1.08306
1.91175
3.83697
9.99506
34.671
35.8365
15.3743
24.3117
23.3745
10.7917
17.2635
16.6732
8.20649
14.1754
13.4009
4.6552
3.28799
6.35833
6.21948
2.93518
4.50888
4.28981
1.99611
2.94956
2.75987
1.13646
1.09096
2.61446
2.61752
1.17885
1.77707
1.69376
0.807081
1.25281
1.20427
0.606093
1.02794
0.969557
0.344622
0.24412
0.456633
0.445726
0.216827
0.336137
0.320893
0.153047
0.230488
0.216701
0.0907307
0.0895441
0.21779
0.219201
0.102008
0.162668
0.158181
0.0837273
0.15993
0.150663
0.0434146
0.0149394
0.00392613
0.0621699
0.19794
0.374112
0.645243
1.15176
2.40219
7.3261
40.7044
41.4607
11.3521
26.6064
25.9876
7.82246
18.7076
18.3306
5.94912
15.6553
15.1528
3.27999
2.21116
6.89843
6.82219
2.10374
4.81462
4.67531
1.42536
3.12662
3.00373
0.777101
0.750659
2.92708
2.93245
0.852383
1.90015
1.84656
0.577618
1.3368
1.30625
0.435705
1.12483
1.0872
0.241203
0.16306
0.489782
0.483789
0.154551
0.357462
0.347829
0.109006
0.244311
0.23538
0.06191
0.0617103
0.244029
0.245214
0.0738666
0.175353
0.172538
0.0609916
0.180575
0.174665
0.0316632
0.00938453
0.00239148
0.0204798
0.0652274
0.123394
0.213268
0.382944
0.822488
3.16523
48.3183
48.584
4.94128
29.6982
29.4783
3.34083
20.7252
20.5943
2.54181
17.6477
17.4711
1.35414
0.856025
7.68421
7.661
0.888656
5.26812
5.21983
0.599681
3.39907
3.35586
0.309075
0.300712
3.34878
3.35151
0.363371
2.08012
2.0614
0.243537
1.46177
1.45126
0.184599
1.25858
1.2454
0.0989006
0.0626582
0.540294
0.538464
0.0649165
0.389872
0.386546
0.0457428
0.265686
0.262545
0.0245549
0.024776
0.279362
0.279845
0.0315327
0.19338
0.192413
0.0261908
0.20741
0.205358
0.0136111
0.00322153
0.000803138
)
;

boundaryField
{
    left
    {
        type            calculated;
        value           uniform 0;
    }
    right
    {
        type            calculated;
        value           uniform 0;
    }
    interface
    {
        type            calculated;
        value           nonuniform List<scalar> 
64
(
0.0204798
0.0652274
0.123394
0.213268
0.382944
0.822488
3.16523
48.3183
48.584
4.94128
29.6982
29.4783
3.34083
20.7252
20.5943
2.54181
17.6477
17.4711
1.35414
0.856025
7.68421
7.661
0.888656
5.26812
5.21983
0.599681
3.39907
3.35586
0.309075
0.300712
3.34878
3.35151
0.363371
2.08012
2.0614
0.243537
1.46177
1.45126
0.184599
1.25858
1.2454
0.0989006
0.0626582
0.540294
0.538464
0.0649165
0.389872
0.386546
0.0457428
0.265686
0.262545
0.0245549
0.024776
0.279362
0.279845
0.0315327
0.19338
0.192413
0.0261908
0.20741
0.205358
0.0136111
0.00322153
0.000803138
)
;
    }
    bottom
    {
        type            calculated;
        value           nonuniform List<scalar> 
64
(
0.020329
0.0607441
0.100406
0.138751
0.175144
0.208887
0.239256
0.26557
0.28725
0.303893
0.315307
0.321533
0.322822
0.319608
0.312451
0.301995
0.288916
0.273884
0.257529
0.240421
0.223054
0.205836
0.189087
0.173049
0.15789
0.143713
0.130574
0.118484
0.107421
0.0973423
0.0881833
0.0798714
0.0723294
0.0654807
0.0592534
0.0535826
0.0484112
0.0436907
0.0393796
0.0354434
0.0318532
0.0285841
0.0256143
0.0229239
0.0204939
0.0183056
0.0163402
0.014579
0.013003
0.0115934
0.0103317
0.00919955
0.00817907
0.00725306
0.00640516
0.00562009
0.00488399
0.00418468
0.0035118
0.002857
0.00221388
0.00157781
0.000945607
0.000315073
)
;
    }
    defaultFaces
    {
        type            empty;
    }
}


// ************************************************************************* //
