/*--------------------------------*- C++ -*----------------------------------*\
| =========                 |                                                 |
| \\      /  F ield         | OpenFOAM: The Open Source CFD Toolbox           |
|  \\    /   O peration     | Version:  5.x                                   |
|   \\  /    A nd           | Web:      www.OpenFOAM.org                      |
|    \\/     M anipulation  |                                                 |
\*---------------------------------------------------------------------------*/
FoamFile
{
    version     2.0;
    format      ascii;
    class       volScalarField;
    location    "3";
    object      T;
}
// * * * * * * * * * * * * * * * * * * * * * * * * * * * * * * * * * * * * * //

dimensions      [0 0 0 1 0 0 0];

internalField   nonuniform List<scalar> 
2048
(
9.84846
9.8491
9.85036
9.85224
9.8547
9.85771
9.86123
9.86519
9.86952
9.87416
9.87902
9.88402
9.88907
9.8941
9.89906
9.90387
9.90849
9.9129
9.91705
9.92094
9.92457
9.92792
9.931
9.93382
9.93641
9.93876
9.9409
9.94284
9.9446
9.9462
9.94764
9.94895
9.95014
9.95121
9.95218
9.95306
9.95386
9.95458
9.95522
9.95581
9.95633
9.9568
9.95722
9.9576
9.95794
9.95824
9.95851
9.95875
9.95897
9.95916
9.95933
9.95948
9.95962
9.95974
9.95985
9.95994
9.96002
9.96009
9.96015
9.9602
9.96024
9.96027
9.96029
9.9603
9.55149
9.55338
9.55712
9.56269
9.56999
9.57894
9.58938
9.60114
9.61403
9.62781
9.64224
9.65708
9.67207
9.68702
9.7017
9.71597
9.72967
9.74271
9.75501
9.76652
9.77722
9.78712
9.79623
9.80457
9.81219
9.81913
9.82544
9.83117
9.83636
9.84107
9.84533
9.84919
9.85269
9.85586
9.85872
9.86132
9.86366
9.86578
9.86769
9.86941
9.87095
9.87234
9.87359
9.8747
9.8757
9.87659
9.87738
9.87809
9.87872
9.87929
9.87979
9.88024
9.88064
9.88099
9.88131
9.88158
9.88182
9.88203
9.88221
9.88236
9.88247
9.88256
9.88262
9.88265
9.26609
9.26918
9.27534
9.28449
9.2965
9.31122
9.32842
9.34781
9.36904
9.39175
9.41552
9.43994
9.46462
9.48918
9.5133
9.53671
9.55918
9.58053
9.60065
9.61946
9.63694
9.65309
9.66794
9.68153
9.69393
9.70523
9.71549
9.7248
9.73323
9.74088
9.74781
9.75408
9.75976
9.76491
9.76957
9.77378
9.77759
9.78103
9.78413
9.78692
9.78944
9.79169
9.79371
9.79552
9.79714
9.79858
9.79987
9.80102
9.80205
9.80297
9.80378
9.80451
9.80516
9.80573
9.80624
9.80669
9.80708
9.80742
9.80771
9.80795
9.80814
9.80828
9.80838
9.80843
8.99103
8.9953
9.00382
9.01647
9.03311
9.05351
9.07737
9.10427
9.13376
9.16528
9.19826
9.23213
9.26632
9.30031
9.33365
9.36595
9.39692
9.4263
9.45395
9.47977
9.50373
9.52584
9.54613
9.5647
9.58163
9.59703
9.61101
9.62369
9.63518
9.64559
9.65501
9.66355
9.67129
9.67829
9.68463
9.69037
9.69555
9.70024
9.70446
9.70826
9.71168
9.71475
9.7175
9.71995
9.72215
9.72412
9.72587
9.72743
9.72882
9.73007
9.73117
9.73216
9.73304
9.73382
9.73452
9.73513
9.73566
9.73613
9.73652
9.73685
9.73711
9.7373
9.73743
9.7375
8.7253
8.73073
8.74155
8.75766
8.77886
8.8049
8.83537
8.86977
8.90748
8.94779
8.98996
9.03321
9.07682
9.12012
9.16252
9.20353
9.24276
9.27993
9.31484
9.34739
9.37753
9.4053
9.43076
9.45403
9.47521
9.49447
9.51194
9.52777
9.54211
9.5551
9.56686
9.57751
9.58716
9.5959
9.60381
9.61097
9.61744
9.62329
9.62856
9.6333
9.63756
9.64139
9.64481
9.64788
9.65062
9.65306
9.65524
9.65718
9.65892
9.66046
9.66184
9.66307
9.66416
9.66514
9.666
9.66677
9.66743
9.66801
9.66851
9.66892
9.66924
9.66949
9.66965
9.66974
8.46805
8.47462
8.48771
8.50722
8.53295
8.56459
8.60169
8.64361
8.68959
8.73876
8.79014
8.8428
8.89581
8.94834
8.99969
9.04924
9.09655
9.14128
9.18319
9.22219
9.25824
9.29139
9.32173
9.34941
9.37459
9.39745
9.41817
9.43693
9.45392
9.4693
9.48322
9.49583
9.50726
9.51761
9.52698
9.53546
9.54313
9.55006
9.5563
9.56192
9.56696
9.57149
9.57554
9.57916
9.5824
9.58528
9.58786
9.59015
9.5922
9.59402
9.59565
9.5971
9.59839
9.59954
9.60057
9.60147
9.60227
9.60295
9.60354
9.60403
9.60442
9.60471
9.60491
9.60501
8.21858
8.22626
8.24158
8.26445
8.29467
8.33192
8.37568
8.4252
8.47957
8.53769
8.59841
8.66054
8.72298
8.78472
8.84493
8.90291
8.95812
9.01019
9.05887
9.10405
9.14572
9.18395
9.21889
9.25071
9.27962
9.30582
9.32956
9.35103
9.37046
9.38804
9.40395
9.41837
9.43144
9.44328
9.454
9.46371
9.47249
9.48041
9.48756
9.49398
9.49975
9.50493
9.50955
9.51369
9.51738
9.52066
9.5236
9.52621
9.52854
9.53061
9.53247
9.53412
9.5356
9.53691
9.53808
9.53912
9.54003
9.54082
9.5415
9.54206
9.54251
9.54285
9.54307
9.54319
7.97632
7.98508
8.00257
8.02875
8.06343
8.10629
8.15677
8.21401
8.27692
8.34418
8.41438
8.48611
8.55804
8.62901
8.69804
8.76432
8.82728
8.88648
8.94169
8.99278
9.03979
9.08283
9.12208
9.15776
9.19012
9.21942
9.24593
9.26989
9.29156
9.31116
9.3289
9.34498
9.35956
9.37277
9.38474
9.39557
9.40537
9.41422
9.42219
9.42936
9.4358
9.44156
9.44672
9.45132
9.45542
9.45907
9.46233
9.46523
9.46781
9.47012
9.47218
9.47401
9.47565
9.47712
9.47842
9.47958
9.4806
9.48148
9.48224
9.48288
9.48339
9.48377
9.48403
9.48415
7.74079
7.75058
7.77019
7.79959
7.83869
7.88717
7.94445
8.00956
8.08122
8.15784
8.23774
8.31923
8.40076
8.48099
8.55879
8.63329
8.70383
8.76997
8.83146
8.88821
8.94028
8.98783
9.0311
9.07036
9.10591
9.13806
9.16711
9.19334
9.21705
9.23849
9.2579
9.27549
9.29144
9.30591
9.31902
9.3309
9.34164
9.35133
9.36007
9.36792
9.37496
9.38127
9.3869
9.39192
9.39639
9.40038
9.40392
9.40708
9.4099
9.41241
9.41465
9.41665
9.41844
9.42004
9.42146
9.42273
9.42385
9.42483
9.42567
9.42637
9.42694
9.42736
9.42765
9.42779
7.5116
7.52238
7.54401
7.57655
7.61999
7.67408
7.73825
7.81142
7.89207
7.97834
8.0682
8.15965
8.2509
8.34043
8.42698
8.5096
8.58758
8.66046
8.72799
8.79012
8.84696
8.89873
8.94574
8.98831
9.02679
9.06153
9.09289
9.12118
9.14673
9.16984
9.19076
9.20972
9.22693
9.24255
9.25671
9.26954
9.28114
9.29161
9.30104
9.30952
9.31712
9.32391
9.32997
9.33537
9.34018
9.34445
9.34826
9.35164
9.35466
9.35735
9.35976
9.36191
9.36383
9.36555
9.36709
9.36846
9.36968
9.37074
9.37165
9.37242
9.37304
9.3735
9.37382
9.37397
7.28846
7.30016
7.32369
7.35924
7.40691
7.4666
7.53774
7.61918
7.70914
7.80537
7.90548
8.00713
8.10825
8.20713
8.3024
8.39304
8.47831
8.55773
8.63107
8.6983
8.75962
8.81532
8.86577
8.91137
8.95253
8.98963
9.02307
9.05322
9.08042
9.10502
9.1273
9.14751
9.16586
9.18253
9.19764
9.21134
9.22373
9.23491
9.24498
9.25403
9.26213
9.26936
9.27581
9.28154
9.28664
9.29118
9.29521
9.2988
9.302
9.30485
9.30739
9.30967
9.31171
9.31354
9.31519
9.31665
9.31796
9.3191
9.32009
9.32091
9.32158
9.32209
9.32243
9.3226
7.07112
7.08366
7.10896
7.14733
7.1991
7.26433
7.34253
7.43248
7.53208
7.63867
7.74937
7.86147
7.97261
8.08089
8.18486
8.28342
8.37582
8.46157
8.54046
8.61252
8.67801
8.73734
8.79096
8.83932
8.8829
8.92213
8.95744
8.98924
9.01792
9.04385
9.06734
9.08867
9.10806
9.12568
9.14167
9.15616
9.16927
9.1811
9.19175
9.20131
9.20986
9.21749
9.22428
9.23031
9.23567
9.24043
9.24466
9.24842
9.25178
9.25477
9.25744
9.25983
9.26198
9.26391
9.26564
9.26719
9.26858
9.2698
9.27085
9.27174
9.27246
9.27301
9.27338
9.27356
6.85941
6.8727
6.89957
6.94056
6.99623
7.06689
7.15224
7.25096
7.36062
7.478
7.59967
7.72248
7.84379
7.96152
8.07414
8.18051
8.27988
8.37175
8.45594
8.53253
8.6019
8.66456
8.72106
8.77193
8.81769
8.85882
8.8958
8.92905
8.95903
8.98612
9.01069
9.03303
9.05335
9.07184
9.08863
9.10384
9.11761
9.13003
9.1412
9.15123
9.16019
9.16817
9.17526
9.18155
9.18714
9.19209
9.19649
9.20041
9.2039
9.20701
9.20978
9.21227
9.21451
9.21653
9.21834
9.21998
9.22144
9.22273
9.22386
9.2248
9.22557
9.22616
9.22655
9.22675
6.65321
6.66712
6.69536
6.73869
6.79799
6.87395
6.96649
7.07429
7.19449
7.32315
7.4562
7.59002
7.72163
7.84883
7.97004
8.0841
8.19027
8.28806
8.37728
8.4581
8.53104
8.59673
8.65583
8.70895
8.75666
8.79948
8.83791
8.87245
8.90355
8.93166
8.95718
8.98041
9.00159
9.02086
9.03838
9.05425
9.06861
9.08157
9.09322
9.10367
9.113
9.12129
9.12865
9.13516
9.14093
9.14605
9.1506
9.15464
9.15824
9.16145
9.16432
9.1669
9.16921
9.1713
9.1732
9.17491
9.17644
9.1778
9.17899
9.18
9.18082
9.18144
9.18186
9.18207
6.45244
6.46684
6.49618
6.54151
6.60412
6.68516
6.78493
6.90216
7.03345
7.17395
7.31881
7.46392
7.60597
7.74263
7.87235
7.99397
8.10676
8.21025
8.30424
8.38899
8.46516
8.53359
8.59502
8.65014
8.69958
8.74389
8.78359
8.81923
8.85129
8.88027
8.90662
8.93066
8.9526
8.97259
8.99077
9.00725
9.02214
9.03559
9.04767
9.0585
9.06816
9.07673
9.08431
9.09101
9.09694
9.1022
9.10686
9.11102
9.11471
9.11801
9.12095
9.1236
9.12598
9.12814
9.1301
9.13188
9.13348
9.13491
9.13616
9.13722
9.13809
9.13876
9.1392
9.13942
6.25705
6.27178
6.30194
6.34889
6.41439
6.5002
6.6072
6.73423
6.87727
7.03024
7.18739
7.34407
7.49664
7.64274
7.78086
7.90988
8.02911
8.13811
8.23661
8.32493
8.40401
8.47488
8.53837
8.59527
8.64623
8.69183
8.73263
8.7692
8.80207
8.83177
8.85883
8.88359
8.90624
8.92689
8.94567
8.96269
8.97808
8.99196
9.00444
9.01561
9.02557
9.03438
9.04215
9.049
9.05506
9.06043
9.06519
9.06943
9.07321
9.07657
9.07958
9.08228
9.08471
9.08693
9.08895
9.0908
9.09247
9.09396
9.09527
9.09639
9.09731
9.09802
9.09849
9.09872
6.06703
6.08192
6.11257
6.16067
6.22856
6.31875
6.43291
6.57018
6.72579
6.89193
7.06182
7.23037
7.39351
7.54894
7.69535
7.83159
7.95708
8.07141
8.17414
8.2657
8.34733
8.42034
8.48565
8.54409
8.59639
8.64311
8.68484
8.72218
8.7557
8.78599
8.81366
8.83907
8.86235
8.8836
8.90294
8.92046
8.93629
8.95057
8.9634
8.97488
8.98511
8.99413
9.00205
9.00902
9.01518
9.02064
9.02548
9.02979
9.03363
9.03704
9.0401
9.04284
9.04532
9.04759
9.04967
9.05158
9.05331
9.05486
9.05623
9.05741
9.05839
9.05913
9.05963
9.05988
5.88237
5.89726
5.92804
5.97678
6.04645
6.1405
6.26167
6.4097
6.57885
6.75893
6.94201
7.12271
7.29643
7.46104
7.6156
7.75886
7.89042
8.00994
8.11663
8.21103
8.29485
8.36974
8.43661
8.49638
8.54985
8.59752
8.64001
8.67799
8.71201
8.74275
8.77092
8.79693
8.82081
8.84261
8.86247
8.88043
8.89665
8.91129
8.92444
8.93621
8.94668
8.95588
8.96392
8.97097
8.97721
8.98273
8.98763
8.992
8.99588
8.99934
9.00244
9.00521
9.00772
9.01003
9.01217
9.01413
9.01592
9.01753
9.01897
9.02021
9.02123
9.02202
9.02254
9.0228
5.70311
5.71779
5.74834
5.79716
5.86791
5.96515
6.09307
6.25242
6.43638
6.63121
6.82789
7.02104
7.20525
7.37881
7.5414
7.69145
7.82886
7.95349
8.06387
8.16068
8.2463
8.3228
8.39102
8.45192
8.50642
8.55488
8.59798
8.63648
8.67085
8.70188
8.73047
8.75704
8.78147
8.80379
8.82413
8.84249
8.85906
8.87403
8.88746
8.89948
8.91018
8.91953
8.92765
8.93476
8.94105
8.94661
8.95156
8.95597
8.95989
8.96338
8.9665
8.96929
8.97183
8.97417
8.97636
8.97837
8.98022
8.98189
8.98339
8.98468
8.98577
8.9866
8.98715
8.98742
5.52926
5.54356
5.57348
5.62177
5.69279
5.7924
5.92666
6.09795
6.29834
6.50877
6.71934
6.92529
7.11982
7.302
7.47252
7.62908
7.77211
7.90187
8.01568
8.11439
8.20139
8.27931
8.34864
8.41047
8.4659
8.51501
8.55857
8.59747
8.63205
8.66322
8.69213
8.71927
8.74422
8.76701
8.7878
8.80652
8.82339
8.83866
8.85235
8.86459
8.87552
8.885
8.89316
8.90028
8.90661
8.9122
8.91717
8.92162
8.92556
8.92907
8.93221
8.93501
8.93755
8.93992
8.94216
8.94423
8.94613
8.94786
8.94941
8.95077
8.95192
8.95279
8.95337
8.95364
5.36085
5.37459
5.40349
5.45061
5.52102
5.62197
5.76193
5.94585
6.16483
6.39168
6.61625
6.83547
7.04001
7.23032
7.40878
7.57149
7.71987
7.85494
7.97189
8.07191
8.15983
8.23903
8.30926
8.37182
8.42811
8.47773
8.5216
8.56084
8.59548
8.62661
8.65576
8.6835
8.70895
8.73215
8.7534
8.77243
8.78954
8.80511
8.81901
8.83145
8.84261
8.85219
8.86034
8.86745
8.8738
8.87941
8.88439
8.88887
8.89282
8.89633
8.89948
8.90229
8.90482
8.90721
8.9095
8.91162
8.91357
8.91537
8.91697
8.91839
8.91961
8.92053
8.92113
8.92141
5.19792
5.21092
5.23842
5.28373
5.35254
5.45361
5.59832
5.79555
6.03608
6.28002
6.51842
6.75161
6.96566
7.16342
7.35001
7.51842
7.67176
7.81257
7.93237
8.03297
8.1213
8.20177
8.27267
8.33574
8.39292
8.44289
8.48691
8.52646
8.56101
8.5919
8.62118
8.64962
8.67555
8.69911
8.72083
8.7401
8.7574
8.77326
8.78734
8.79996
8.81137
8.82104
8.82913
8.83619
8.84255
8.84815
8.85312
8.85763
8.86159
8.86509
8.86826
8.87105
8.87356
8.87596
8.87832
8.88049
8.88248
8.88434
8.886
8.88748
8.88878
8.88974
8.89036
8.89065
5.04047
5.05257
5.07832
5.12117
5.18735
5.28709
5.43524
5.64636
5.91253
6.17395
6.42553
6.67384
6.89662
7.10087
7.29612
7.46958
7.62736
7.77472
7.89701
7.9973
8.08547
8.16736
8.23869
8.302
8.36019
8.41035
8.4543
8.49423
8.52852
8.55892
8.58824
8.61756
8.64392
8.66775
8.69
8.70946
8.72687
8.74306
8.75726
8.77001
8.78174
8.79146
8.79943
8.80639
8.81278
8.81835
8.8233
8.82786
8.8318
8.83528
8.83847
8.84123
8.84369
8.8461
8.84854
8.85075
8.85278
8.85471
8.85642
8.85796
8.85935
8.86036
8.86099
8.86128
4.88851
4.89958
4.92324
4.96303
5.02551
5.12227
5.27201
5.49733
5.79494
6.07367
6.33709
6.60244
6.83276
7.0421
7.24712
7.4247
7.5861
7.74144
7.86576
7.96459
8.05194
8.13568
8.20714
8.27034
8.32984
8.37996
8.42361
8.46407
8.49793
8.52751
8.55675
8.58725
8.61399
8.63797
8.66086
8.68041
8.69782
8.71441
8.72868
8.7415
8.75365
8.76339
8.77116
8.77798
8.78443
8.78995
8.79485
8.79947
8.80338
8.80683
8.81004
8.81276
8.81516
8.81756
8.8201
8.82235
8.82441
8.82642
8.82817
8.82976
8.83127
8.83233
8.83297
8.83325
4.74202
4.75194
4.77325
4.80941
4.86713
4.95905
5.10794
5.34717
5.68449
5.97939
6.25231
6.53787
6.77392
6.98636
7.20317
7.38349
7.5473
7.71289
7.83858
7.93455
8.02027
8.1067
8.17785
8.24046
8.30181
8.35159
8.39461
8.43595
8.46913
8.49754
8.52652
8.55869
8.58567
8.60962
8.63336
8.65287
8.67015
8.68728
8.70152
8.71433
8.72706
8.73678
8.74424
8.75086
8.75743
8.76287
8.76768
8.77241
8.77628
8.77966
8.78293
8.78559
8.78789
8.79028
8.79295
8.79523
8.7973
8.79941
8.80118
8.80282
8.80448
8.80559
8.80622
8.8065
4.60099
4.60967
4.62839
4.66042
4.71237
4.79746
4.9423
5.19411
5.58297
5.89137
6.17002
6.48091
6.71993
6.93264
7.16467
7.3457
7.51004
7.68947
7.81547
7.90681
7.98993
8.08047
8.15068
8.21202
8.27615
8.32512
8.36704
8.40985
8.44206
8.46883
8.49732
8.53188
8.55889
8.58254
8.60749
8.62676
8.64371
8.66164
8.67569
8.68836
8.70193
8.71156
8.7186
8.72495
8.73173
8.73705
8.74173
8.74663
8.75042
8.7537
8.75708
8.75965
8.76182
8.76417
8.76705
8.76933
8.77139
8.77363
8.77541
8.77707
8.77892
8.78008
8.78069
8.78095
4.46536
4.47273
4.48868
4.51619
4.56145
4.63767
4.77446
5.03562
5.49301
5.80983
6.08849
6.4328
6.67064
6.87957
7.13238
7.31103
7.47308
7.67179
7.79645
7.88103
7.96026
8.0572
8.1255
8.18459
8.25295
8.30045
8.34062
8.38585
8.41668
8.44123
8.46887
8.50693
8.5336
8.55654
8.58326
8.60202
8.61836
8.63747
8.65113
8.66347
8.67827
8.68769
8.69415
8.70014
8.7073
8.71243
8.71691
8.72209
8.72574
8.72888
8.73244
8.7349
8.73689
8.73917
8.74234
8.7446
8.74661
8.74903
8.75078
8.75245
8.75456
8.75574
8.75632
8.75656
4.33507
4.34109
4.35416
4.37684
4.41463
4.47996
4.60391
4.8682
5.41836
5.73495
6.00522
6.39541
6.62585
6.82528
7.1075
7.27924
7.43478
7.66089
7.7815
7.85681
7.93047
8.03727
8.10216
8.15761
8.23247
8.27747
8.31496
8.36407
8.39292
8.4146
8.44083
8.484
8.50972
8.53138
8.56075
8.57856
8.5939
8.6148
8.62777
8.63947
8.65609
8.66511
8.67082
8.67634
8.68412
8.68894
8.69313
8.69876
8.7022
8.70513
8.70898
8.71128
8.71303
8.7152
8.7188
8.72098
8.72289
8.72557
8.72726
8.72888
8.73135
8.73254
8.73306
8.73327
4.21003
4.21468
4.2248
4.24246
4.2722
4.32482
4.43044
4.68698
5.36424
5.66677
5.91673
6.37147
6.58532
6.76724
7.09188
7.25003
7.39294
7.65827
7.77057
7.83378
7.89954
8.02132
8.08056
8.1304
8.21509
8.25605
8.28956
8.34474
8.37074
8.38882
8.41278
8.46337
8.4872
8.50677
8.54009
8.55633
8.57011
8.59373
8.60553
8.61618
8.63545
8.64378
8.64854
8.65342
8.66218
8.66655
8.67029
8.67663
8.67975
8.68235
8.68668
8.68874
8.69021
8.69219
8.69641
8.69843
8.70016
8.70323
8.70477
8.70628
8.70927
8.7104
8.71085
8.71102
4.09015
4.09344
4.1006
4.11315
4.13445
4.17289
4.25435
4.48523
5.33782
5.60512
5.81827
6.36487
6.54872
6.70211
7.0882
7.22314
7.34466
7.66612
7.76343
7.8116
7.86618
8.0103
8.06054
8.10202
8.20144
8.23608
8.26382
8.32825
8.35007
8.36376
8.38416
8.44547
8.46596
8.48231
8.52149
8.53524
8.54671
8.57439
8.58435
8.59333
8.61647
8.62362
8.62724
8.63125
8.64151
8.64518
8.64828
8.65569
8.65831
8.66047
8.66552
8.66724
8.66835
8.67004
8.67516
8.67689
8.67834
8.68197
8.68329
8.68459
8.68829
8.6893
8.68964
8.68976
3.97531
3.97726
3.9815
3.98895
4.00166
4.02494
4.07673
4.25388
5.34875
5.54953
5.7035
6.38098
6.51561
6.62543
7.10022
7.19826
7.28613
7.68749
7.75966
7.78999
7.82876
8.00557
8.04195
8.07131
8.19241
8.21741
8.23695
8.31512
8.33081
8.3394
8.35427
8.43088
8.44591
8.45751
8.50529
8.51522
8.52334
8.55699
8.56416
8.57061
8.59931
8.60458
8.60685
8.60968
8.62216
8.6248
8.62699
8.63597
8.63786
8.63937
8.64549
8.64673
8.64743
8.64866
8.65505
8.65632
8.65736
8.6618
8.66275
8.66371
8.66839
8.66917
8.66938
8.66946
3.86539
3.86603
3.86743
3.86989
3.87409
3.88185
3.8998
3.98077
5.40974
5.49901
5.56416
6.42708
6.48535
6.53148
7.13302
7.17505
7.21245
7.72654
7.75842
7.76886
7.78517
8.00899
8.02457
8.03676
8.1892
8.19988
8.20794
8.3061
8.31281
8.31576
8.32221
8.42041
8.42695
8.43177
8.49195
8.49619
8.49956
8.54187
8.54491
8.54764
8.58424
8.58655
8.58733
8.58851
8.60422
8.60534
8.60625
8.61752
8.61833
8.61895
8.62663
8.62716
8.6274
8.62793
8.63613
8.63668
8.63711
8.64272
8.64312
8.64354
8.64961
8.64996
8.65003
8.65006
)
;

boundaryField
{
    left
    {
        type            zeroGradient;
    }
    right
    {
        type            zeroGradient;
    }
    interface
    {
        type            fixedValue;
        value           nonuniform List<scalar> 
64
(
3.81164
3.81164
3.81164
3.81164
3.81164
3.81164
3.81164
3.81164
5.47496
5.47496
5.47496
6.47088
6.47088
6.47088
7.16383
7.16383
7.16383
7.75838
7.75838
7.75838
7.75838
8.01617
8.01617
8.01617
8.19139
8.19139
8.19139
8.30412
8.30412
8.30412
8.30412
8.41772
8.41772
8.41772
8.48691
8.48691
8.48691
8.53551
8.53551
8.53551
8.57779
8.57779
8.57779
8.57779
8.59584
8.59584
8.59584
8.60879
8.60879
8.60879
8.6176
8.6176
8.6176
8.6176
8.62708
8.62708
8.62708
8.63353
8.63353
8.63353
8.64058
8.64058
8.64058
8.64058
)
;
    }
    bottom
    {
        type            fixedValue;
        value           uniform 10;
    }
    defaultFaces
    {
        type            empty;
    }
}


// ************************************************************************* //
